LAMMPS DATA FILE 

2787 atoms 
6539 bonds 

5 atom types 
6539 bond types 

-5.237596 5.247007 xlo xhi 
-0.899870 0.900130 ylo yhi 
-0.100000 0.100000 zlo zhi 

Bond Coeffs 

1 433012701.892219 0.013761 
2 433012701.892219 0.013767 
3 433012701.892219 0.013761 
4 433012701.892219 0.013767 
5 433012701.892219 0.020125 
6 433012701.892219 0.016854 
7 433012701.892219 0.014240 
8 433012701.892219 0.019241 
9 433012701.892219 0.014925 
10 433012701.892219 0.022044 
11 433012701.892219 0.014181 
12 433012701.892219 0.025270 
13 433012701.892219 0.019002 
14 433012701.892219 0.021013 
15 433012701.892219 0.019851 
16 433012701.892219 0.017779 
17 433012701.892219 0.021122 
18 433012701.892219 0.015587 
19 433012701.892219 0.021814 
20 433012701.892219 0.016724 
21 433012701.892219 0.022957 
22 433012701.892219 0.019591 
23 433012701.892219 0.020317 
24 433012701.892219 0.019034 
25 433012701.892219 0.014872 
26 433012701.892219 0.022215 
27 433012701.892219 0.018596 
28 433012701.892219 0.022215 
29 433012701.892219 0.018696 
30 433012701.892219 0.018978 
31 433012701.892219 0.015547 
32 433012701.892219 0.023668 
33 433012701.892219 0.025132 
34 433012701.892219 0.019939 
35 433012701.892219 0.017743 
36 433012701.892219 0.017878 
37 433012701.892219 0.020056 
38 433012701.892219 0.013396 
39 433012701.892219 0.026874 
40 433012701.892219 0.016519 
41 433012701.892219 0.019899 
42 433012701.892219 0.014073 
43 433012701.892219 0.019899 
44 433012701.892219 0.014073 
45 433012701.892219 0.026874 
46 433012701.892219 0.016519 
47 433012701.892219 0.020056 
48 433012701.892219 0.013334 
49 433012701.892219 0.017624 
50 433012701.892219 0.017773 
51 433012701.892219 0.023551 
52 433012701.892219 0.024933 
53 433012701.892219 0.020552 
54 433012701.892219 0.019977 
55 433012701.892219 0.015624 
56 433012701.892219 0.022069 
57 433012701.892219 0.017717 
58 433012701.892219 0.022069 
59 433012701.892219 0.017717 
60 433012701.892219 0.019977 
61 433012701.892219 0.015624 
62 433012701.892219 0.023551 
63 433012701.892219 0.020552 
64 433012701.892219 0.021664 
65 433012701.892219 0.022586 
66 433012701.892219 0.016531 
67 433012701.892219 0.020494 
68 433012701.892219 0.015703 
69 433012701.892219 0.020858 
70 433012701.892219 0.015703 
71 433012701.892219 0.023151 
72 433012701.892219 0.021924 
73 433012701.892219 0.021268 
74 433012701.892219 0.016069 
75 433012701.892219 0.021044 
76 433012701.892219 0.016082 
77 433012701.892219 0.022290 
78 433012701.892219 0.023068 
79 433012701.892219 0.020270 
80 433012701.892219 0.015703 
81 433012701.892219 0.020485 
82 433012701.892219 0.015703 
83 433012701.892219 0.023075 
84 433012701.892219 0.018860 
85 433012701.892219 0.019464 
86 433012701.892219 0.014495 
87 433012701.892219 0.019069 
88 433012701.892219 0.017607 
89 433012701.892219 0.025257 
90 433012701.892219 0.017412 
91 433012701.892219 0.023199 
92 433012701.892219 0.023118 
93 433012701.892219 0.025805 
94 433012701.892219 0.018519 
95 433012701.892219 0.019278 
96 433012701.892219 0.025172 
97 433012701.892219 0.017425 
98 433012701.892219 0.024185 
99 433012701.892219 0.017148 
100 433012701.892219 0.017359 
101 433012701.892219 0.015431 
102 433012701.892219 0.021689 
103 433012701.892219 0.024195 
104 433012701.892219 0.020505 
105 433012701.892219 0.018502 
106 433012701.892219 0.025106 
107 433012701.892219 0.018706 
108 433012701.892219 0.017372 
109 433012701.892219 0.019160 
110 433012701.892219 0.014550 
111 433012701.892219 0.018721 
112 433012701.892219 0.018578 
113 433012701.892219 0.017931 
114 433012701.892219 0.014550 
115 433012701.892219 0.019039 
116 433012701.892219 0.017372 
117 433012701.892219 0.025129 
118 433012701.892219 0.017412 
119 433012701.892219 0.023199 
120 433012701.892219 0.024011 
121 433012701.892219 0.025805 
122 433012701.892219 0.018924 
123 433012701.892219 0.025249 
124 433012701.892219 0.018795 
125 433012701.892219 0.017372 
126 433012701.892219 0.017964 
127 433012701.892219 0.014550 
128 433012701.892219 0.018554 
129 433012701.892219 0.020113 
130 433012701.892219 0.019360 
131 433012701.892219 0.014644 
132 433012701.892219 0.018924 
133 433012701.892219 0.017187 
134 433012701.892219 0.024994 
135 433012701.892219 0.017412 
136 433012701.892219 0.023199 
137 433012701.892219 0.024081 
138 433012701.892219 0.025805 
139 433012701.892219 0.018693 
140 433012701.892219 0.024737 
141 433012701.892219 0.018449 
142 433012701.892219 0.016080 
143 433012701.892219 0.017968 
144 433012701.892219 0.014529 
145 433012701.892219 0.018517 
146 433012701.892219 0.016193 
147 433012701.892219 0.026793 
148 433012701.892219 0.024852 
149 433012701.892219 0.020706 
150 433012701.892219 0.018246 
151 433012701.892219 0.015040 
152 433012701.892219 0.022452 
153 433012701.892219 0.020575 
154 433012701.892219 0.014790 
155 433012701.892219 0.026874 
156 433012701.892219 0.016185 
157 433012701.892219 0.019899 
158 433012701.892219 0.014073 
159 433012701.892219 0.019899 
160 433012701.892219 0.014073 
161 433012701.892219 0.026874 
162 433012701.892219 0.016519 
163 433012701.892219 0.022964 
164 433012701.892219 0.020056 
165 433012701.892219 0.018802 
166 433012701.892219 0.020978 
167 433012701.892219 0.015196 
168 433012701.892219 0.021357 
169 433012701.892219 0.014918 
170 433012701.892219 0.019036 
171 433012701.892219 0.017810 
172 433012701.892219 0.025202 
173 433012701.892219 0.017412 
174 433012701.892219 0.023199 
175 433012701.892219 0.024014 
176 433012701.892219 0.025805 
177 433012701.892219 0.018867 
178 433012701.892219 0.025349 
179 433012701.892219 0.018482 
180 433012701.892219 0.017372 
181 433012701.892219 0.019160 
182 433012701.892219 0.014550 
183 433012701.892219 0.018721 
184 433012701.892219 0.018578 
185 433012701.892219 0.017931 
186 433012701.892219 0.014550 
187 433012701.892219 0.019036 
188 433012701.892219 0.017372 
189 433012701.892219 0.025202 
190 433012701.892219 0.017412 
191 433012701.892219 0.023199 
192 433012701.892219 0.024014 
193 433012701.892219 0.025805 
194 433012701.892219 0.018867 
195 433012701.892219 0.025413 
196 433012701.892219 0.018500 
197 433012701.892219 0.017372 
198 433012701.892219 0.018685 
199 433012701.892219 0.014550 
200 433012701.892219 0.018673 
201 433012701.892219 0.015969 
202 433012701.892219 0.022805 
203 433012701.892219 0.020056 
204 433012701.892219 0.020571 
205 433012701.892219 0.023779 
206 433012701.892219 0.016519 
207 433012701.892219 0.020687 
208 433012701.892219 0.025275 
209 433012701.892219 0.018850 
210 433012701.892219 0.015699 
211 433012701.892219 0.018481 
212 433012701.892219 0.014929 
213 433012701.892219 0.019482 
214 433012701.892219 0.014650 
215 433012701.892219 0.021057 
216 433012701.892219 0.019027 
217 433012701.892219 0.014762 
218 433012701.892219 0.019620 
219 433012701.892219 0.013711 
220 433012701.892219 0.026070 
221 433012701.892219 0.016185 
222 433012701.892219 0.022452 
223 433012701.892219 0.020575 
224 433012701.892219 0.014790 
225 433012701.892219 0.018246 
226 433012701.892219 0.015040 
227 433012701.892219 0.024340 
228 433012701.892219 0.024852 
229 433012701.892219 0.024852 
230 433012701.892219 0.018246 
231 433012701.892219 0.015040 
232 433012701.892219 0.022452 
233 433012701.892219 0.020575 
234 433012701.892219 0.014790 
235 433012701.892219 0.026874 
236 433012701.892219 0.016185 
237 433012701.892219 0.019899 
238 433012701.892219 0.014073 
239 433012701.892219 0.019899 
240 433012701.892219 0.014073 
241 433012701.892219 0.026874 
242 433012701.892219 0.016185 
243 433012701.892219 0.022452 
244 433012701.892219 0.020575 
245 433012701.892219 0.014790 
246 433012701.892219 0.018246 
247 433012701.892219 0.015040 
248 433012701.892219 0.024824 
249 433012701.892219 0.024852 
250 433012701.892219 0.022298 
251 433012701.892219 0.023357 
252 433012701.892219 0.017090 
253 433012701.892219 0.020406 
254 433012701.892219 0.015704 
255 433012701.892219 0.020457 
256 433012701.892219 0.015704 
257 433012701.892219 0.023168 
258 433012701.892219 0.022265 
259 433012701.892219 0.021016 
260 433012701.892219 0.015945 
261 433012701.892219 0.020545 
262 433012701.892219 0.015934 
263 433012701.892219 0.022595 
264 433012701.892219 0.016531 
265 433012701.892219 0.024156 
266 433012701.892219 0.020603 
267 433012701.892219 0.021664 
268 433012701.892219 0.020109 
269 433012701.892219 0.015569 
270 433012701.892219 0.022069 
271 433012701.892219 0.017618 
272 433012701.892219 0.022069 
273 433012701.892219 0.018158 
274 433012701.892219 0.019479 
275 433012701.892219 0.014994 
276 433012701.892219 0.022914 
277 433012701.892219 0.019901 
278 433012701.892219 0.014720 
279 433012701.892219 0.018246 
280 433012701.892219 0.013899 
281 433012701.892219 0.028605 
282 433012701.892219 0.024852 
283 433012701.892219 0.024852 
284 433012701.892219 0.018246 
285 433012701.892219 0.013899 
286 433012701.892219 0.022914 
287 433012701.892219 0.019897 
288 433012701.892219 0.014720 
289 433012701.892219 0.019457 
290 433012701.892219 0.014989 
291 433012701.892219 0.021872 
292 433012701.892219 0.018134 
293 433012701.892219 0.021872 
294 433012701.892219 0.017656 
295 433012701.892219 0.019939 
296 433012701.892219 0.015139 
297 433012701.892219 0.024036 
298 433012701.892219 0.020450 
299 433012701.892219 0.018595 
300 433012701.892219 0.021125 
301 433012701.892219 0.015642 
302 433012701.892219 0.020025 
303 433012701.892219 0.014804 
304 433012701.892219 0.018472 
305 433012701.892219 0.017530 
306 433012701.892219 0.018867 
307 433012701.892219 0.025350 
308 433012701.892219 0.023199 
309 433012701.892219 0.024014 
310 433012701.892219 0.025805 
311 433012701.892219 0.017412 
312 433012701.892219 0.017364 
313 433012701.892219 0.021527 
314 433012701.892219 0.022603 
315 433012701.892219 0.015012 
316 433012701.892219 0.020530 
317 433012701.892219 0.014492 
318 433012701.892219 0.022215 
319 433012701.892219 0.017502 
320 433012701.892219 0.022215 
321 433012701.892219 0.017502 
322 433012701.892219 0.018979 
323 433012701.892219 0.020530 
324 433012701.892219 0.019303 
325 433012701.892219 0.014869 
326 433012701.892219 0.018899 
327 433012701.892219 0.016936 
328 433012701.892219 0.020540 
329 433012701.892219 0.026226 
330 433012701.892219 0.023977 
331 433012701.892219 0.016519 
332 433012701.892219 0.022965 
333 433012701.892219 0.020056 
334 433012701.892219 0.021795 
335 433012701.892219 0.022325 
336 433012701.892219 0.016094 
337 433012701.892219 0.020616 
338 433012701.892219 0.015704 
339 433012701.892219 0.020184 
340 433012701.892219 0.015704 
341 433012701.892219 0.022793 
342 433012701.892219 0.016536 
343 433012701.892219 0.024296 
344 433012701.892219 0.021488 
345 433012701.892219 0.020495 
346 433012701.892219 0.018792 
347 433012701.892219 0.016162 
348 433012701.892219 0.018906 
349 433012701.892219 0.014441 
350 433012701.892219 0.018769 
351 433012701.892219 0.016686 
352 433012701.892219 0.024784 
353 433012701.892219 0.017412 
354 433012701.892219 0.023199 
355 433012701.892219 0.022983 
356 433012701.892219 0.025805 
357 433012701.892219 0.018654 
358 433012701.892219 0.017208 
359 433012701.892219 0.019811 
360 433012701.892219 0.017115 
361 433012701.892219 0.022746 
362 433012701.892219 0.015234 
363 433012701.892219 0.021352 
364 433012701.892219 0.021916 
365 433012701.892219 0.014783 
366 433012701.892219 0.019658 
367 433012701.892219 0.013805 
368 433012701.892219 0.026050 
369 433012701.892219 0.016519 
370 433012701.892219 0.023275 
371 433012701.892219 0.020056 
372 433012701.892219 0.021803 
373 433012701.892219 0.022393 
374 433012701.892219 0.016097 
375 433012701.892219 0.020626 
376 433012701.892219 0.015703 
377 433012701.892219 0.020695 
378 433012701.892219 0.015703 
379 433012701.892219 0.023236 
380 433012701.892219 0.021817 
381 433012701.892219 0.021090 
382 433012701.892219 0.015094 
383 433012701.892219 0.019036 
384 433012701.892219 0.017693 
385 433012701.892219 0.025202 
386 433012701.892219 0.017412 
387 433012701.892219 0.023199 
388 433012701.892219 0.022308 
389 433012701.892219 0.025805 
390 433012701.892219 0.017978 
391 433012701.892219 0.016126 
392 433012701.892219 0.019382 
393 433012701.892219 0.016615 
394 433012701.892219 0.022470 
395 433012701.892219 0.015234 
396 433012701.892219 0.019899 
397 433012701.892219 0.025434 
398 433012701.892219 0.021916 
399 433012701.892219 0.018756 
400 433012701.892219 0.015699 
401 433012701.892219 0.018481 
402 433012701.892219 0.014929 
403 433012701.892219 0.019482 
404 433012701.892219 0.014631 
405 433012701.892219 0.020951 
406 433012701.892219 0.019012 
407 433012701.892219 0.014665 
408 433012701.892219 0.019899 
409 433012701.892219 0.013894 
410 433012701.892219 0.026874 
411 433012701.892219 0.016519 
412 433012701.892219 0.023319 
413 433012701.892219 0.020056 
414 433012701.892219 0.021803 
415 433012701.892219 0.022393 
416 433012701.892219 0.016097 
417 433012701.892219 0.020626 
418 433012701.892219 0.015926 
419 433012701.892219 0.021046 
420 433012701.892219 0.015948 
421 433012701.892219 0.022301 
422 433012701.892219 0.023070 
423 433012701.892219 0.020287 
424 433012701.892219 0.015703 
425 433012701.892219 0.021433 
426 433012701.892219 0.015703 
427 433012701.892219 0.023296 
428 433012701.892219 0.023509 
429 433012701.892219 0.021189 
430 433012701.892219 0.015703 
431 433012701.892219 0.020269 
432 433012701.892219 0.015703 
433 433012701.892219 0.022290 
434 433012701.892219 0.023067 
435 433012701.892219 0.021045 
436 433012701.892219 0.016006 
437 433012701.892219 0.020272 
438 433012701.892219 0.016052 
439 433012701.892219 0.022802 
440 433012701.892219 0.017090 
441 433012701.892219 0.024340 
442 433012701.892219 0.021575 
443 433012701.892219 0.022298 
444 433012701.892219 0.023297 
445 433012701.892219 0.016530 
446 433012701.892219 0.020017 
447 433012701.892219 0.015704 
448 433012701.892219 0.020457 
449 433012701.892219 0.015704 
450 433012701.892219 0.023167 
451 433012701.892219 0.022266 
452 433012701.892219 0.021017 
453 433012701.892219 0.016024 
454 433012701.892219 0.020481 
455 433012701.892219 0.016069 
456 433012701.892219 0.023103 
457 433012701.892219 0.017090 
458 433012701.892219 0.024340 
459 433012701.892219 0.022298 
460 433012701.892219 0.022298 
461 433012701.892219 0.022802 
462 433012701.892219 0.017090 
463 433012701.892219 0.020272 
464 433012701.892219 0.015940 
465 433012701.892219 0.020705 
466 433012701.892219 0.015898 
467 433012701.892219 0.022649 
468 433012701.892219 0.016529 
469 433012701.892219 0.023453 
470 433012701.892219 0.019934 
471 433012701.892219 0.021657 
472 433012701.892219 0.018896 
473 433012701.892219 0.015496 
474 433012701.892219 0.021718 
475 433012701.892219 0.018647 
476 433012701.892219 0.021888 
477 433012701.892219 0.017502 
478 433012701.892219 0.020530 
479 433012701.892219 0.014775 
480 433012701.892219 0.021670 
481 433012701.892219 0.023332 
482 433012701.892219 0.015017 
483 433012701.892219 0.017412 
484 433012701.892219 0.017370 
485 433012701.892219 0.023199 
486 433012701.892219 0.024081 
487 433012701.892219 0.025805 
488 433012701.892219 0.018693 
489 433012701.892219 0.024993 
490 433012701.892219 0.018153 
491 433012701.892219 0.016080 
492 433012701.892219 0.017968 
493 433012701.892219 0.014529 
494 433012701.892219 0.018517 
495 433012701.892219 0.016311 
496 433012701.892219 0.027422 
497 433012701.892219 0.022111 
498 433012701.892219 0.020796 
499 433012701.892219 0.023237 
500 433012701.892219 0.016985 
501 433012701.892219 0.019992 
502 433012701.892219 0.015704 
503 433012701.892219 0.020457 
504 433012701.892219 0.015704 
505 433012701.892219 0.023167 
506 433012701.892219 0.022266 
507 433012701.892219 0.021017 
508 433012701.892219 0.016007 
509 433012701.892219 0.020173 
510 433012701.892219 0.016045 
511 433012701.892219 0.022762 
512 433012701.892219 0.017090 
513 433012701.892219 0.027934 
514 433012701.892219 0.022298 
515 433012701.892219 0.022298 
516 433012701.892219 0.022793 
517 433012701.892219 0.017090 
518 433012701.892219 0.020184 
519 433012701.892219 0.015965 
520 433012701.892219 0.021171 
521 433012701.892219 0.015898 
522 433012701.892219 0.022317 
523 433012701.892219 0.022801 
524 433012701.892219 0.020988 
525 433012701.892219 0.015704 
526 433012701.892219 0.020481 
527 433012701.892219 0.015704 
528 433012701.892219 0.023103 
529 433012701.892219 0.017090 
530 433012701.892219 0.027123 
531 433012701.892219 0.022298 
532 433012701.892219 0.022286 
533 433012701.892219 0.022752 
534 433012701.892219 0.017086 
535 433012701.892219 0.020170 
536 433012701.892219 0.015910 
537 433012701.892219 0.020478 
538 433012701.892219 0.015915 
539 433012701.892219 0.023094 
540 433012701.892219 0.017086 
541 433012701.892219 0.027123 
542 433012701.892219 0.022030 
543 433012701.892219 0.022286 
544 433012701.892219 0.023237 
545 433012701.892219 0.016947 
546 433012701.892219 0.019992 
547 433012701.892219 0.015704 
548 433012701.892219 0.019490 
549 433012701.892219 0.015704 
550 433012701.892219 0.022098 
551 433012701.892219 0.016529 
552 433012701.892219 0.024117 
553 433012701.892219 0.020603 
554 433012701.892219 0.021657 
555 433012701.892219 0.019942 
556 433012701.892219 0.015562 
557 433012701.892219 0.021888 
558 433012701.892219 0.017647 
559 433012701.892219 0.021718 
560 433012701.892219 0.018647 
561 433012701.892219 0.018896 
562 433012701.892219 0.015460 
563 433012701.892219 0.023193 
564 433012701.892219 0.019910 
565 433012701.892219 0.021664 
566 433012701.892219 0.022125 
567 433012701.892219 0.016531 
568 433012701.892219 0.019483 
569 433012701.892219 0.015703 
570 433012701.892219 0.021309 
571 433012701.892219 0.015703 
572 433012701.892219 0.022323 
573 433012701.892219 0.023505 
574 433012701.892219 0.020988 
575 433012701.892219 0.015703 
576 433012701.892219 0.020858 
577 433012701.892219 0.015703 
578 433012701.892219 0.023151 
579 433012701.892219 0.021924 
580 433012701.892219 0.021268 
581 433012701.892219 0.016050 
582 433012701.892219 0.020704 
583 433012701.892219 0.016052 
584 433012701.892219 0.022653 
585 433012701.892219 0.016531 
586 433012701.892219 0.024198 
587 433012701.892219 0.020627 
588 433012701.892219 0.021664 
589 433012701.892219 0.020114 
590 433012701.892219 0.015570 
591 433012701.892219 0.022069 
592 433012701.892219 0.017617 
593 433012701.892219 0.022069 
594 433012701.892219 0.017717 
595 433012701.892219 0.019977 
596 433012701.892219 0.015624 
597 433012701.892219 0.023551 
598 433012701.892219 0.025123 
599 433012701.892219 0.020552 
600 433012701.892219 0.017803 
601 433012701.892219 0.015295 
602 433012701.892219 0.020056 
603 433012701.892219 0.014531 
604 433012701.892219 0.026874 
605 433012701.892219 0.016519 
606 433012701.892219 0.019899 
607 433012701.892219 0.014073 
608 433012701.892219 0.019899 
609 433012701.892219 0.014073 
610 433012701.892219 0.026874 
611 433012701.892219 0.015999 
612 433012701.892219 0.022246 
613 433012701.892219 0.020899 
614 433012701.892219 0.020038 
615 433012701.892219 0.021995 
616 433012701.892219 0.015830 
617 433012701.892219 0.020150 
618 433012701.892219 0.015637 
619 433012701.892219 0.019304 
620 433012701.892219 0.015637 
621 433012701.892219 0.024148 
622 433012701.892219 0.018775 
623 433012701.892219 0.025329 
624 433012701.892219 0.024645 
625 433012701.892219 0.024357 
626 433012701.892219 0.018293 
627 433012701.892219 0.015800 
628 433012701.892219 0.020137 
629 433012701.892219 0.017233 
630 433012701.892219 0.014239 
631 433012701.892219 0.018692 
632 433012701.892219 0.013426 
633 433012701.892219 0.026039 
634 433012701.892219 0.017858 
635 433012701.892219 0.025413 
636 433012701.892219 0.023817 
637 433012701.892219 0.023817 
638 433012701.892219 0.026036 
639 433012701.892219 0.017858 
640 433012701.892219 0.018674 
641 433012701.892219 0.013425 
642 433012701.892219 0.020125 
643 433012701.892219 0.016854 
644 433012701.892219 0.014240 
645 433012701.892219 0.019241 
646 433012701.892219 0.014925 
647 433012701.892219 0.022044 
648 433012701.892219 0.014181 
649 433012701.892219 0.025270 
650 433012701.892219 0.019002 
651 433012701.892219 0.021013 
652 433012701.892219 0.019851 
653 433012701.892219 0.017779 
654 433012701.892219 0.021122 
655 433012701.892219 0.015587 
656 433012701.892219 0.021814 
657 433012701.892219 0.016724 
658 433012701.892219 0.022957 
659 433012701.892219 0.019591 
660 433012701.892219 0.020317 
661 433012701.892219 0.019034 
662 433012701.892219 0.014872 
663 433012701.892219 0.022215 
664 433012701.892219 0.018596 
665 433012701.892219 0.022215 
666 433012701.892219 0.018696 
667 433012701.892219 0.018978 
668 433012701.892219 0.015547 
669 433012701.892219 0.023668 
670 433012701.892219 0.025132 
671 433012701.892219 0.019939 
672 433012701.892219 0.017743 
673 433012701.892219 0.017878 
674 433012701.892219 0.020056 
675 433012701.892219 0.013396 
676 433012701.892219 0.026874 
677 433012701.892219 0.016519 
678 433012701.892219 0.019899 
679 433012701.892219 0.014073 
680 433012701.892219 0.019899 
681 433012701.892219 0.014073 
682 433012701.892219 0.026874 
683 433012701.892219 0.016519 
684 433012701.892219 0.023013 
685 433012701.892219 0.020056 
686 433012701.892219 0.021803 
687 433012701.892219 0.022047 
688 433012701.892219 0.016097 
689 433012701.892219 0.020373 
690 433012701.892219 0.015703 
691 433012701.892219 0.020616 
692 433012701.892219 0.015703 
693 433012701.892219 0.023168 
694 433012701.892219 0.022473 
695 433012701.892219 0.021017 
696 433012701.892219 0.016068 
697 433012701.892219 0.021017 
698 433012701.892219 0.016068 
699 433012701.892219 0.023168 
700 433012701.892219 0.022290 
701 433012701.892219 0.020448 
702 433012701.892219 0.015703 
703 433012701.892219 0.020448 
704 433012701.892219 0.015703 
705 433012701.892219 0.022848 
706 433012701.892219 0.016097 
707 433012701.892219 0.023205 
708 433012701.892219 0.020056 
709 433012701.892219 0.021803 
710 433012701.892219 0.026874 
711 433012701.892219 0.016519 
712 433012701.892219 0.019899 
713 433012701.892219 0.014073 
714 433012701.892219 0.019899 
715 433012701.892219 0.014073 
716 433012701.892219 0.026874 
717 433012701.892219 0.016519 
718 433012701.892219 0.022991 
719 433012701.892219 0.020056 
720 433012701.892219 0.018802 
721 433012701.892219 0.020978 
722 433012701.892219 0.015196 
723 433012701.892219 0.021357 
724 433012701.892219 0.014925 
725 433012701.892219 0.019039 
726 433012701.892219 0.017795 
727 433012701.892219 0.025129 
728 433012701.892219 0.017412 
729 433012701.892219 0.023199 
730 433012701.892219 0.023118 
731 433012701.892219 0.025805 
732 433012701.892219 0.018519 
733 433012701.892219 0.019278 
734 433012701.892219 0.025172 
735 433012701.892219 0.017425 
736 433012701.892219 0.024185 
737 433012701.892219 0.017148 
738 433012701.892219 0.017359 
739 433012701.892219 0.015431 
740 433012701.892219 0.021689 
741 433012701.892219 0.024203 
742 433012701.892219 0.020505 
743 433012701.892219 0.018424 
744 433012701.892219 0.025277 
745 433012701.892219 0.018704 
746 433012701.892219 0.017372 
747 433012701.892219 0.017964 
748 433012701.892219 0.014550 
749 433012701.892219 0.018554 
750 433012701.892219 0.020113 
751 433012701.892219 0.019360 
752 433012701.892219 0.014644 
753 433012701.892219 0.018924 
754 433012701.892219 0.017187 
755 433012701.892219 0.024994 
756 433012701.892219 0.017412 
757 433012701.892219 0.023199 
758 433012701.892219 0.024011 
759 433012701.892219 0.025805 
760 433012701.892219 0.018924 
761 433012701.892219 0.025085 
762 433012701.892219 0.018745 
763 433012701.892219 0.017372 
764 433012701.892219 0.019160 
765 433012701.892219 0.014550 
766 433012701.892219 0.018721 
767 433012701.892219 0.018578 
768 433012701.892219 0.017931 
769 433012701.892219 0.014550 
770 433012701.892219 0.019039 
771 433012701.892219 0.017372 
772 433012701.892219 0.025129 
773 433012701.892219 0.017412 
774 433012701.892219 0.023199 
775 433012701.892219 0.024069 
776 433012701.892219 0.025805 
777 433012701.892219 0.018769 
778 433012701.892219 0.024627 
779 433012701.892219 0.018508 
780 433012701.892219 0.016671 
781 433012701.892219 0.018906 
782 433012701.892219 0.014417 
783 433012701.892219 0.018792 
784 433012701.892219 0.016221 
785 433012701.892219 0.024545 
786 433012701.892219 0.024852 
787 433012701.892219 0.020508 
788 433012701.892219 0.018246 
789 433012701.892219 0.015040 
790 433012701.892219 0.022452 
791 433012701.892219 0.020575 
792 433012701.892219 0.014790 
793 433012701.892219 0.026874 
794 433012701.892219 0.016185 
795 433012701.892219 0.019899 
796 433012701.892219 0.014073 
797 433012701.892219 0.019899 
798 433012701.892219 0.014073 
799 433012701.892219 0.026874 
800 433012701.892219 0.016519 
801 433012701.892219 0.022828 
802 433012701.892219 0.020056 
803 433012701.892219 0.018802 
804 433012701.892219 0.021137 
805 433012701.892219 0.015196 
806 433012701.892219 0.019932 
807 433012701.892219 0.014843 
808 433012701.892219 0.019036 
809 433012701.892219 0.017445 
810 433012701.892219 0.025202 
811 433012701.892219 0.017412 
812 433012701.892219 0.023199 
813 433012701.892219 0.024014 
814 433012701.892219 0.025805 
815 433012701.892219 0.018867 
816 433012701.892219 0.025349 
817 433012701.892219 0.018482 
818 433012701.892219 0.017372 
819 433012701.892219 0.019160 
820 433012701.892219 0.014550 
821 433012701.892219 0.018721 
822 433012701.892219 0.018578 
823 433012701.892219 0.017931 
824 433012701.892219 0.014550 
825 433012701.892219 0.019039 
826 433012701.892219 0.017372 
827 433012701.892219 0.025129 
828 433012701.892219 0.017412 
829 433012701.892219 0.023199 
830 433012701.892219 0.024014 
831 433012701.892219 0.025805 
832 433012701.892219 0.018867 
833 433012701.892219 0.025411 
834 433012701.892219 0.018505 
835 433012701.892219 0.017372 
836 433012701.892219 0.019497 
837 433012701.892219 0.014550 
838 433012701.892219 0.023354 
839 433012701.892219 0.019204 
840 433012701.892219 0.021071 
841 433012701.892219 0.015977 
842 433012701.892219 0.021046 
843 433012701.892219 0.015957 
844 433012701.892219 0.022301 
845 433012701.892219 0.023070 
846 433012701.892219 0.020287 
847 433012701.892219 0.015703 
848 433012701.892219 0.021309 
849 433012701.892219 0.015703 
850 433012701.892219 0.022323 
851 433012701.892219 0.023505 
852 433012701.892219 0.020988 
853 433012701.892219 0.015703 
854 433012701.892219 0.020494 
855 433012701.892219 0.015703 
856 433012701.892219 0.022586 
857 433012701.892219 0.016531 
858 433012701.892219 0.023551 
859 433012701.892219 0.020501 
860 433012701.892219 0.021664 
861 433012701.892219 0.018693 
862 433012701.892219 0.015664 
863 433012701.892219 0.018114 
864 433012701.892219 0.017794 
865 433012701.892219 0.017934 
866 433012701.892219 0.016289 
867 433012701.892219 0.019581 
868 433012701.892219 0.016544 
869 433012701.892219 0.019914 
870 433012701.892219 0.020530 
871 433012701.892219 0.022122 
872 433012701.892219 0.017502 
873 433012701.892219 0.022122 
874 433012701.892219 0.018560 
875 433012701.892219 0.019031 
876 433012701.892219 0.014851 
877 433012701.892219 0.022914 
878 433012701.892219 0.019586 
879 433012701.892219 0.014720 
880 433012701.892219 0.018246 
881 433012701.892219 0.013899 
882 433012701.892219 0.024634 
883 433012701.892219 0.024852 
884 433012701.892219 0.022298 
885 433012701.892219 0.022802 
886 433012701.892219 0.017090 
887 433012701.892219 0.020272 
888 433012701.892219 0.015965 
889 433012701.892219 0.021172 
890 433012701.892219 0.015903 
891 433012701.892219 0.022323 
892 433012701.892219 0.022801 
893 433012701.892219 0.020988 
894 433012701.892219 0.015703 
895 433012701.892219 0.020494 
896 433012701.892219 0.015703 
897 433012701.892219 0.022586 
898 433012701.892219 0.016531 
899 433012701.892219 0.023551 
900 433012701.892219 0.020555 
901 433012701.892219 0.021664 
902 433012701.892219 0.019312 
903 433012701.892219 0.015738 
904 433012701.892219 0.022021 
905 433012701.892219 0.018472 
906 433012701.892219 0.022021 
907 433012701.892219 0.018544 
908 433012701.892219 0.019015 
909 433012701.892219 0.015235 
910 433012701.892219 0.022914 
911 433012701.892219 0.020136 
912 433012701.892219 0.014720 
913 433012701.892219 0.018246 
914 433012701.892219 0.013899 
915 433012701.892219 0.026806 
916 433012701.892219 0.024852 
917 433012701.892219 0.020706 
918 433012701.892219 0.018517 
919 433012701.892219 0.016196 
920 433012701.892219 0.017968 
921 433012701.892219 0.014529 
922 433012701.892219 0.018918 
923 433012701.892219 0.016080 
924 433012701.892219 0.025079 
925 433012701.892219 0.017412 
926 433012701.892219 0.023199 
927 433012701.892219 0.024011 
928 433012701.892219 0.025805 
929 433012701.892219 0.018924 
930 433012701.892219 0.025174 
931 433012701.892219 0.018768 
932 433012701.892219 0.017372 
933 433012701.892219 0.018765 
934 433012701.892219 0.014550 
935 433012701.892219 0.018665 
936 433012701.892219 0.016170 
937 433012701.892219 0.023551 
938 433012701.892219 0.019242 
939 433012701.892219 0.020649 
940 433012701.892219 0.018729 
941 433012701.892219 0.015192 
942 433012701.892219 0.021596 
943 433012701.892219 0.018712 
944 433012701.892219 0.021682 
945 433012701.892219 0.018251 
946 433012701.892219 0.018979 
947 433012701.892219 0.019334 
948 433012701.892219 0.019303 
949 433012701.892219 0.014869 
950 433012701.892219 0.018955 
951 433012701.892219 0.016936 
952 433012701.892219 0.020527 
953 433012701.892219 0.025776 
954 433012701.892219 0.023896 
955 433012701.892219 0.016185 
956 433012701.892219 0.022452 
957 433012701.892219 0.020575 
958 433012701.892219 0.014790 
959 433012701.892219 0.018246 
960 433012701.892219 0.015040 
961 433012701.892219 0.024824 
962 433012701.892219 0.024852 
963 433012701.892219 0.022298 
964 433012701.892219 0.023103 
965 433012701.892219 0.017090 