LAMMPS DATA FILE 

14926 atoms 
33816 bonds 

5 atom types 
33816 bond types 

-2.699960 2.700040 xlo xhi 
-2.698812 2.701188 ylo yhi 
-0.007084 0.007084 zlo zhi 

Bond Coeffs 

1 1948557.158515 0.025000 
2 1948557.158515 0.025000 
3 1948557.158515 0.023144 
4 1948557.158515 0.029238 
5 1948557.158515 0.017834 
6 1948557.158515 0.020625 
7 1948557.158515 0.025000 
8 1948557.158515 0.025000 
9 1948557.158515 0.023144 
10 1948557.158515 0.029238 
11 1948557.158515 0.017834 
12 1948557.158515 0.020625 
13 1948557.158515 0.025000 
14 1948557.158515 0.025000 
15 1948557.158515 0.021836 
16 1948557.158515 0.026927 
17 1948557.158515 0.017726 
18 1948557.158515 0.025000 
19 1948557.158515 0.025000 
20 1948557.158515 0.021836 
21 1948557.158515 0.026927 
22 1948557.158515 0.017797 
23 1948557.158515 0.025000 
24 1948557.158515 0.025000 
25 1948557.158515 0.022889 
26 1948557.158515 0.027145 
27 1948557.158515 0.017834 
28 1948557.158515 0.020625 
29 1948557.158515 0.025000 
30 1948557.158515 0.025000 
31 1948557.158515 0.023144 
32 1948557.158515 0.029238 
33 1948557.158515 0.017834 
34 1948557.158515 0.020625 
35 1948557.158515 0.025000 
36 1948557.158515 0.025000 
37 1948557.158515 0.023244 
38 1948557.158515 0.027196 
39 1948557.158515 0.017369 
40 1948557.158515 0.020233 
41 1948557.158515 0.025000 
42 1948557.158515 0.025000 
43 1948557.158515 0.023244 
44 1948557.158515 0.027196 
45 1948557.158515 0.017369 
46 1948557.158515 0.020233 
47 1948557.158515 0.025000 
48 1948557.158515 0.025000 
49 1948557.158515 0.022889 
50 1948557.158515 0.027145 
51 1948557.158515 0.017834 
52 1948557.158515 0.020625 
53 1948557.158515 0.025000 
54 1948557.158515 0.025000 
55 1948557.158515 0.021676 
56 1948557.158515 0.022618 
57 1948557.158515 0.027147 
58 1948557.158515 0.019022 
59 1948557.158515 0.025000 
60 1948557.158515 0.025000 
61 1948557.158515 0.023244 
62 1948557.158515 0.027196 
63 1948557.158515 0.017369 
64 1948557.158515 0.020233 
65 1948557.158515 0.025000 
66 1948557.158515 0.025000 
67 1948557.158515 0.023244 
68 1948557.158515 0.027196 
69 1948557.158515 0.017369 
70 1948557.158515 0.020233 
71 1948557.158515 0.025000 
72 1948557.158515 0.025000 
73 1948557.158515 0.022889 
74 1948557.158515 0.027145 
75 1948557.158515 0.017834 
76 1948557.158515 0.020625 
77 1948557.158515 0.025000 
78 1948557.158515 0.025000 
79 1948557.158515 0.023144 
80 1948557.158515 0.029238 
81 1948557.158515 0.017834 
82 1948557.158515 0.020625 
83 1948557.158515 0.025000 
84 1948557.158515 0.025000 
85 1948557.158515 0.021676 
86 1948557.158515 0.022618 
87 1948557.158515 0.027147 
88 1948557.158515 0.019022 
89 1948557.158515 0.025000 
90 1948557.158515 0.025000 
91 1948557.158515 0.023244 
92 1948557.158515 0.027196 
93 1948557.158515 0.017369 
94 1948557.158515 0.020233 
95 1948557.158515 0.025000 
96 1948557.158515 0.025000 
97 1948557.158515 0.023501 
98 1948557.158515 0.029147 
99 1948557.158515 0.017369 
100 1948557.158515 0.020233 
101 1948557.158515 0.025000 
102 1948557.158515 0.025000 
103 1948557.158515 0.021676 
104 1948557.158515 0.022618 
105 1948557.158515 0.027425 
106 1948557.158515 0.019022 
107 1948557.158515 0.025000 
108 1948557.158515 0.025000 
109 1948557.158515 0.023244 
110 1948557.158515 0.027196 
111 1948557.158515 0.017369 
112 1948557.158515 0.020233 
113 1948557.158515 0.025000 
114 1948557.158515 0.025000 
115 1948557.158515 0.021836 
116 1948557.158515 0.026927 
117 1948557.158515 0.017811 
118 1948557.158515 0.025000 
119 1948557.158515 0.025000 
120 1948557.158515 0.022889 
121 1948557.158515 0.027145 
122 1948557.158515 0.017834 
123 1948557.158515 0.021189 
124 1948557.158515 0.025000 
125 1948557.158515 0.025000 
126 1948557.158515 0.022889 
127 1948557.158515 0.027145 
128 1948557.158515 0.017834 
129 1948557.158515 0.021189 
130 1948557.158515 0.025000 
131 1948557.158515 0.025000 
132 1948557.158515 0.021836 
133 1948557.158515 0.026927 
134 1948557.158515 0.017667 
135 1948557.158515 0.025000 
136 1948557.158515 0.025000 
137 1948557.158515 0.023244 
138 1948557.158515 0.027196 
139 1948557.158515 0.017369 
140 1948557.158515 0.020233 
141 1948557.158515 0.025000 
142 1948557.158515 0.025000 
143 1948557.158515 0.022889 
144 1948557.158515 0.027145 
145 1948557.158515 0.017834 
146 1948557.158515 0.021189 
147 1948557.158515 0.025000 
148 1948557.158515 0.025000 
149 1948557.158515 0.022889 
150 1948557.158515 0.027145 
151 1948557.158515 0.017834 
152 1948557.158515 0.021189 
153 1948557.158515 0.025000 
154 1948557.158515 0.025000 
155 1948557.158515 0.021836 
156 1948557.158515 0.026927 
157 1948557.158515 0.017667 
158 1948557.158515 0.025000 
159 1948557.158515 0.025000 
160 1948557.158515 0.021836 
161 1948557.158515 0.026927 
162 1948557.158515 0.017667 
163 1948557.158515 0.025000 
164 1948557.158515 0.025000 
165 1948557.158515 0.022889 
166 1948557.158515 0.027145 
167 1948557.158515 0.017834 
168 1948557.158515 0.021188 
169 1948557.158515 0.025000 
170 1948557.158515 0.025000 
171 1948557.158515 0.022889 
172 1948557.158515 0.027145 
173 1948557.158515 0.017834 
174 1948557.158515 0.020625 
175 1948557.158515 0.025000 
176 1948557.158515 0.025000 
177 1948557.158515 0.023144 
178 1948557.158515 0.029238 
179 1948557.158515 0.017834 
180 1948557.158515 0.020625 
181 1948557.158515 0.025000 
182 1948557.158515 0.025000 
183 1948557.158515 0.021836 
184 1948557.158515 0.026927 
185 1948557.158515 0.017667 
186 1948557.158515 0.025000 
187 1948557.158515 0.025000 
188 1948557.158515 0.022088 
189 1948557.158515 0.029151 
190 1948557.158515 0.017711 
191 1948557.158515 0.025000 
192 1948557.158515 0.025000 
193 1948557.158515 0.022889 
194 1948557.158515 0.027145 
195 1948557.158515 0.017834 
196 1948557.158515 0.021189 
197 1948557.158515 0.025000 
198 1948557.158515 0.025000 
199 1948557.158515 0.023244 
200 1948557.158515 0.027196 
201 1948557.158515 0.017369 
202 1948557.158515 0.020233 
203 1948557.158515 0.025000 
204 1948557.158515 0.025000 
205 1948557.158515 0.021836 
206 1948557.158515 0.026927 
207 1948557.158515 0.017811 
208 1948557.158515 0.025000 
209 1948557.158515 0.025000 
210 1948557.158515 0.022889 
211 1948557.158515 0.027145 
212 1948557.158515 0.017834 
213 1948557.158515 0.021189 
214 1948557.158515 0.025000 
215 1948557.158515 0.025000 
216 1948557.158515 0.021676 
217 1948557.158515 0.022618 
218 1948557.158515 0.027425 
219 1948557.158515 0.019022 
220 1948557.158515 0.025000 
221 1948557.158515 0.025000 
222 1948557.158515 0.021836 
223 1948557.158515 0.026927 
224 1948557.158515 0.017667 
225 1948557.158515 0.025000 
226 1948557.158515 0.025000 
227 1948557.158515 0.023244 
228 1948557.158515 0.027196 
229 1948557.158515 0.017369 
230 1948557.158515 0.020233 
231 1948557.158515 0.025000 
232 1948557.158515 0.025000 
233 1948557.158515 0.021590 
234 1948557.158515 0.022618 
235 1948557.158515 0.027407 
236 1948557.158515 0.019022 
237 1948557.158515 0.025000 
238 1948557.158515 0.025000 
239 1948557.158515 0.021590 
240 1948557.158515 0.022618 
241 1948557.158515 0.027406 
242 1948557.158515 0.019022 
243 1948557.158515 0.025000 
244 1948557.158515 0.025000 
245 1948557.158515 0.021548 
246 1948557.158515 0.026880 
247 1948557.158515 0.017699 
248 1948557.158515 0.025000 
249 1948557.158515 0.025000 
250 1948557.158515 0.021548 
251 1948557.158515 0.026880 
252 1948557.158515 0.017699 
253 1948557.158515 0.025000 
254 1948557.158515 0.025000 
255 1948557.158515 0.021590 
256 1948557.158515 0.022618 
257 1948557.158515 0.027407 
258 1948557.158515 0.019022 
259 1948557.158515 0.025000 
260 1948557.158515 0.025000 
261 1948557.158515 0.021676 
262 1948557.158515 0.022618 
263 1948557.158515 0.027426 
264 1948557.158515 0.019022 
265 1948557.158515 0.025000 
266 1948557.158515 0.025000 
267 1948557.158515 0.023133 
268 1948557.158515 0.029059 
269 1948557.158515 0.017834 
270 1948557.158515 0.020625 
271 1948557.158515 0.025000 
272 1948557.158515 0.025000 
273 1948557.158515 0.021548 
274 1948557.158515 0.026880 
275 1948557.158515 0.017699 
276 1948557.158515 0.025000 
277 1948557.158515 0.025000 
278 1948557.158515 0.022088 
279 1948557.158515 0.029151 
280 1948557.158515 0.017711 
281 1948557.158515 0.025000 
282 1948557.158515 0.025000 
283 1948557.158515 0.022889 
284 1948557.158515 0.027145 
285 1948557.158515 0.017834 
286 1948557.158515 0.021188 
287 1948557.158515 0.025000 
288 1948557.158515 0.025000 
289 1948557.158515 0.021836 
290 1948557.158515 0.026927 
291 1948557.158515 0.017811 
292 1948557.158515 0.025000 
293 1948557.158515 0.025000 
294 1948557.158515 0.021113 
295 1948557.158515 0.029151 
296 1948557.158515 0.017858 
297 1948557.158515 0.025000 
298 1948557.158515 0.025000 
299 1948557.158515 0.021590 
300 1948557.158515 0.022618 
301 1948557.158515 0.027406 
302 1948557.158515 0.019022 
303 1948557.158515 0.025000 
304 1948557.158515 0.025000 
305 1948557.158515 0.021590 
306 1948557.158515 0.022618 
307 1948557.158515 0.027406 
308 1948557.158515 0.019022 
309 1948557.158515 0.025000 
310 1948557.158515 0.025000 
311 1948557.158515 0.021548 
312 1948557.158515 0.026880 
313 1948557.158515 0.017757 
314 1948557.158515 0.025000 
315 1948557.158515 0.025000 
316 1948557.158515 0.023501 
317 1948557.158515 0.029147 
318 1948557.158515 0.017369 
319 1948557.158515 0.020233 
320 1948557.158515 0.025000 
321 1948557.158515 0.025000 
322 1948557.158515 0.021590 
323 1948557.158515 0.022618 
324 1948557.158515 0.027406 
325 1948557.158515 0.019022 
326 1948557.158515 0.025000 
327 1948557.158515 0.025000 
328 1948557.158515 0.021590 
329 1948557.158515 0.022618 
330 1948557.158515 0.027406 
331 1948557.158515 0.019022 
332 1948557.158515 0.025000 
333 1948557.158515 0.025000 
334 1948557.158515 0.023244 
335 1948557.158515 0.027196 
336 1948557.158515 0.017369 
337 1948557.158515 0.020233 
338 1948557.158515 0.025000 
339 1948557.158515 0.025000 
340 1948557.158515 0.023501 
341 1948557.158515 0.029147 
342 1948557.158515 0.017369 
343 1948557.158515 0.020233 
344 1948557.158515 0.025000 
345 1948557.158515 0.025000 
346 1948557.158515 0.021590 
347 1948557.158515 0.022618 
348 1948557.158515 0.027406 
349 1948557.158515 0.019022 
350 1948557.158515 0.025000 
351 1948557.158515 0.025000 
352 1948557.158515 0.021590 
353 1948557.158515 0.022618 
354 1948557.158515 0.027407 
355 1948557.158515 0.019022 
356 1948557.158515 0.025000 
357 1948557.158515 0.025000 
358 1948557.158515 0.021113 
359 1948557.158515 0.029151 
360 1948557.158515 0.017858 
361 1948557.158515 0.025000 
362 1948557.158515 0.025000 
363 1948557.158515 0.023501 
364 1948557.158515 0.029147 
365 1948557.158515 0.017369 
366 1948557.158515 0.020233 
367 1948557.158515 0.028676 
368 1948557.158515 0.029633 
369 1948557.158515 0.026851 
370 1948557.158515 0.028638 
371 1948557.158515 0.030470 
372 1948557.158515 0.024050 
373 1948557.158515 0.029649 
374 1948557.158515 0.020579 
375 1948557.158515 0.030155 
376 1948557.158515 0.024890 
377 1948557.158515 0.028636 
378 1948557.158515 0.031350 
379 1948557.158515 0.020579 
380 1948557.158515 0.030154 
381 1948557.158515 0.024890 
382 1948557.158515 0.026861 
383 1948557.158515 0.031343 
384 1948557.158515 0.029434 
385 1948557.158515 0.026852 
386 1948557.158515 0.028638 
387 1948557.158515 0.030471 
388 1948557.158515 0.024050 
389 1948557.158515 0.028676 
390 1948557.158515 0.029635 
391 1948557.158515 0.026852 
392 1948557.158515 0.028638 
393 1948557.158515 0.030470 
394 1948557.158515 0.024050 
395 1948557.158515 0.029572 
396 1948557.158515 0.020579 
397 1948557.158515 0.030155 
398 1948557.158515 0.024890 
399 1948557.158515 0.028636 
400 1948557.158515 0.031350 
401 1948557.158515 0.020579 
402 1948557.158515 0.030155 
403 1948557.158515 0.024890 
404 1948557.158515 0.028636 
405 1948557.158515 0.031350 
406 1948557.158515 0.028676 
407 1948557.158515 0.026852 
408 1948557.158515 0.028638 
409 1948557.158515 0.030471 
410 1948557.158515 0.024050 
411 1948557.158515 0.028676 
412 1948557.158515 0.029635 
413 1948557.158515 0.026851 
414 1948557.158515 0.028638 
415 1948557.158515 0.030470 
416 1948557.158515 0.024050 
417 1948557.158515 0.030442 
418 1948557.158515 0.020579 
419 1948557.158515 0.030155 
420 1948557.158515 0.024890 
421 1948557.158515 0.028636 
422 1948557.158515 0.031350 
423 1948557.158515 0.020579 
424 1948557.158515 0.030155 
425 1948557.158515 0.024890 
426 1948557.158515 0.028636 
427 1948557.158515 0.031350 
428 1948557.158515 0.028676 
429 1948557.158515 0.026852 
430 1948557.158515 0.028638 
431 1948557.158515 0.030471 
432 1948557.158515 0.024050 
433 1948557.158515 0.028676 
434 1948557.158515 0.029635 
435 1948557.158515 0.028676 
436 1948557.158515 0.029633 
437 1948557.158515 0.026851 
438 1948557.158515 0.028638 
439 1948557.158515 0.030470 
440 1948557.158515 0.024050 
441 1948557.158515 0.030442 
442 1948557.158515 0.020579 
443 1948557.158515 0.030154 
444 1948557.158515 0.024890 
445 1948557.158515 0.026902 
446 1948557.158515 0.031343 
447 1948557.158515 0.020579 
448 1948557.158515 0.030155 
449 1948557.158515 0.024890 
450 1948557.158515 0.028636 
451 1948557.158515 0.031350 
452 1948557.158515 0.029136 
453 1948557.158515 0.026852 
454 1948557.158515 0.028638 
455 1948557.158515 0.030471 
456 1948557.158515 0.024050 
457 1948557.158515 0.028676 
458 1948557.158515 0.029635 
459 1948557.158515 0.026851 
460 1948557.158515 0.028638 
461 1948557.158515 0.030472 
462 1948557.158515 0.024050 
463 1948557.158515 0.029572 
464 1948557.158515 0.020579 
465 1948557.158515 0.030155 
466 1948557.158515 0.024890 
467 1948557.158515 0.028636 
468 1948557.158515 0.031350 
469 1948557.158515 0.020579 
470 1948557.158515 0.030155 
471 1948557.158515 0.024890 
472 1948557.158515 0.028636 
473 1948557.158515 0.031350 
474 1948557.158515 0.029434 
475 1948557.158515 0.026851 
476 1948557.158515 0.028638 
477 1948557.158515 0.030469 
478 1948557.158515 0.024050 
479 1948557.158515 0.029182 
480 1948557.158515 0.030442 
481 1948557.158515 0.026852 
482 1948557.158515 0.028638 
483 1948557.158515 0.030470 
484 1948557.158515 0.024050 
485 1948557.158515 0.029568 
486 1948557.158515 0.020579 
487 1948557.158515 0.030155 
488 1948557.158515 0.024890 
489 1948557.158515 0.028636 
490 1948557.158515 0.031350 
491 1948557.158515 0.020579 
492 1948557.158515 0.030155 
493 1948557.158515 0.024890 
494 1948557.158515 0.028636 
495 1948557.158515 0.031350 
496 1948557.158515 0.029434 
497 1948557.158515 0.026851 
498 1948557.158515 0.028638 
499 1948557.158515 0.030472 
500 1948557.158515 0.024050 
501 1948557.158515 0.028676 
502 1948557.158515 0.030458 
503 1948557.158515 0.025000 
504 1948557.158515 0.025000 
505 1948557.158515 0.020591 
506 1948557.158515 0.030113 
507 1948557.158515 0.028638 
508 1948557.158515 0.031114 
509 1948557.158515 0.024050 
510 1948557.158515 0.025000 
511 1948557.158515 0.025000 
512 1948557.158515 0.026600 
513 1948557.158515 0.029405 
514 1948557.158515 0.028636 
515 1948557.158515 0.030594 
516 1948557.158515 0.025000 
517 1948557.158515 0.025000 
518 1948557.158515 0.030442 
519 1948557.158515 0.025000 
520 1948557.158515 0.025000 
521 1948557.158515 0.028676 
522 1948557.158515 0.025000 
523 1948557.158515 0.025000 
524 1948557.158515 0.026629 
525 1948557.158515 0.029379 
526 1948557.158515 0.028345 
527 1948557.158515 0.030607 
528 1948557.158515 0.025000 
529 1948557.158515 0.025000 
530 1948557.158515 0.020591 
531 1948557.158515 0.030113 
532 1948557.158515 0.028638 
533 1948557.158515 0.031115 
534 1948557.158515 0.024050 
535 1948557.158515 0.025000 
536 1948557.158515 0.025000 
537 1948557.158515 0.020597 
538 1948557.158515 0.030177 
539 1948557.158515 0.028638 
540 1948557.158515 0.031219 
541 1948557.158515 0.024050 
542 1948557.158515 0.025000 
543 1948557.158515 0.025000 
544 1948557.158515 0.026601 
545 1948557.158515 0.029415 
546 1948557.158515 0.028636 
547 1948557.158515 0.030598 
548 1948557.158515 0.025000 
549 1948557.158515 0.025000 
550 1948557.158515 0.029699 
551 1948557.158515 0.025000 
552 1948557.158515 0.025000 
553 1948557.158515 0.029434 
554 1948557.158515 0.025000 
555 1948557.158515 0.025000 
556 1948557.158515 0.026627 
557 1948557.158515 0.029429 
558 1948557.158515 0.028636 
559 1948557.158515 0.030606 
560 1948557.158515 0.025000 
561 1948557.158515 0.025000 
562 1948557.158515 0.020597 
563 1948557.158515 0.030177 
564 1948557.158515 0.028638 
565 1948557.158515 0.031218 
566 1948557.158515 0.024050 
567 1948557.158515 0.025000 
568 1948557.158515 0.025000 
569 1948557.158515 0.030237 
570 1948557.158515 0.020566 
571 1948557.158515 0.029374 
572 1948557.158515 0.027840 
573 1948557.158515 0.032322 
574 1948557.158515 0.025000 
575 1948557.158515 0.025000 
576 1948557.158515 0.026807 
577 1948557.158515 0.028638 
578 1948557.158515 0.030393 
579 1948557.158515 0.024050 
580 1948557.158515 0.025000 
581 1948557.158515 0.025000 
582 1948557.158515 0.029162 
583 1948557.158515 0.025000 
584 1948557.158515 0.025000 
585 1948557.158515 0.029699 
586 1948557.158515 0.025000 
587 1948557.158515 0.025000 
588 1948557.158515 0.030113 
589 1948557.158515 0.020591 
590 1948557.158515 0.028638 
591 1948557.158515 0.031115 
592 1948557.158515 0.024050 
593 1948557.158515 0.025000 
594 1948557.158515 0.025000 
595 1948557.158515 0.026627 
596 1948557.158515 0.029429 
597 1948557.158515 0.028636 
598 1948557.158515 0.030606 
599 1948557.158515 0.025000 
600 1948557.158515 0.025000 
601 1948557.158515 0.026601 
602 1948557.158515 0.029415 
603 1948557.158515 0.028636 
604 1948557.158515 0.030598 
605 1948557.158515 0.025000 
606 1948557.158515 0.025000 
607 1948557.158515 0.030177 
608 1948557.158515 0.020597 
609 1948557.158515 0.028638 
610 1948557.158515 0.031219 
611 1948557.158515 0.024050 
612 1948557.158515 0.025000 
613 1948557.158515 0.025000 
614 1948557.158515 0.029434 
615 1948557.158515 0.025000 
616 1948557.158515 0.025000 
617 1948557.158515 0.029699 
618 1948557.158515 0.025000 
619 1948557.158515 0.025000 
620 1948557.158515 0.030177 
621 1948557.158515 0.020597 
622 1948557.158515 0.028638 
623 1948557.158515 0.031218 
624 1948557.158515 0.024050 
625 1948557.158515 0.025000 
626 1948557.158515 0.025000 
627 1948557.158515 0.026627 
628 1948557.158515 0.029429 
629 1948557.158515 0.028636 
630 1948557.158515 0.030606 
631 1948557.158515 0.025000 
632 1948557.158515 0.025000 
633 1948557.158515 0.030237 
634 1948557.158515 0.029374 
635 1948557.158515 0.020566 
636 1948557.158515 0.027840 
637 1948557.158515 0.032322 
638 1948557.158515 0.025000 
639 1948557.158515 0.025000 
640 1948557.158515 0.026807 
641 1948557.158515 0.028638 
642 1948557.158515 0.030393 
643 1948557.158515 0.024050 
644 1948557.158515 0.025000 
645 1948557.158515 0.025000 
646 1948557.158515 0.029162 
647 1948557.158515 0.025000 
648 1948557.158515 0.025000 
649 1948557.158515 0.029699 
650 1948557.158515 0.025000 
651 1948557.158515 0.025000 
652 1948557.158515 0.030113 
653 1948557.158515 0.020591 
654 1948557.158515 0.028638 
655 1948557.158515 0.031115 
656 1948557.158515 0.024050 
657 1948557.158515 0.025000 
658 1948557.158515 0.025000 
659 1948557.158515 0.026627 
660 1948557.158515 0.029429 
661 1948557.158515 0.028636 
662 1948557.158515 0.030606 
663 1948557.158515 0.025000 
664 1948557.158515 0.025000 
665 1948557.158515 0.026601 
666 1948557.158515 0.029415 
667 1948557.158515 0.028636 
668 1948557.158515 0.030598 
669 1948557.158515 0.025000 
670 1948557.158515 0.025000 
671 1948557.158515 0.030177 
672 1948557.158515 0.020597 
673 1948557.158515 0.028638 
674 1948557.158515 0.031219 
675 1948557.158515 0.024050 
676 1948557.158515 0.025000 
677 1948557.158515 0.025000 
678 1948557.158515 0.029434 
679 1948557.158515 0.025000 
680 1948557.158515 0.025000 
681 1948557.158515 0.029702 
682 1948557.158515 0.025000 
683 1948557.158515 0.025000 
684 1948557.158515 0.030113 
685 1948557.158515 0.020591 
686 1948557.158515 0.028638 
687 1948557.158515 0.031115 
688 1948557.158515 0.024050 
689 1948557.158515 0.025000 
690 1948557.158515 0.025000 
691 1948557.158515 0.026590 
692 1948557.158515 0.029434 
693 1948557.158515 0.028636 
694 1948557.158515 0.030554 
695 1948557.158515 0.025000 
696 1948557.158515 0.025000 
697 1948557.158515 0.030113 
698 1948557.158515 0.028638 
699 1948557.158515 0.031116 
700 1948557.158515 0.024050 
701 1948557.158515 0.020591 
702 1948557.158515 0.025000 
703 1948557.158515 0.025000 
704 1948557.158515 0.026601 
705 1948557.158515 0.029415 
706 1948557.158515 0.028636 
707 1948557.158515 0.030598 
708 1948557.158515 0.025000 
709 1948557.158515 0.025000 
710 1948557.158515 0.029699 
711 1948557.158515 0.025000 
712 1948557.158515 0.025000 
713 1948557.158515 0.029434 
714 1948557.158515 0.025000 
715 1948557.158515 0.025000 
716 1948557.158515 0.026627 
717 1948557.158515 0.029429 
718 1948557.158515 0.028636 
719 1948557.158515 0.030606 
720 1948557.158515 0.025000 
721 1948557.158515 0.025000 
722 1948557.158515 0.026806 
723 1948557.158515 0.028638 
724 1948557.158515 0.030392 
725 1948557.158515 0.024050 
726 1948557.158515 0.025000 
727 1948557.158515 0.025000 
728 1948557.158515 0.030177 
729 1948557.158515 0.028638 
730 1948557.158515 0.031219 
731 1948557.158515 0.024050 
732 1948557.158515 0.020597 
733 1948557.158515 0.025000 
734 1948557.158515 0.025000 
735 1948557.158515 0.030237 
736 1948557.158515 0.029374 
737 1948557.158515 0.027840 
738 1948557.158515 0.032322 
739 1948557.158515 0.020566 
740 1948557.158515 0.025000 
741 1948557.158515 0.025000 
742 1948557.158515 0.029699 
743 1948557.158515 0.025000 
744 1948557.158515 0.025000 
745 1948557.158515 0.029162 
746 1948557.158515 0.025000 
747 1948557.158515 0.025000 
748 1948557.158515 0.026627 
749 1948557.158515 0.029429 
750 1948557.158515 0.028636 
751 1948557.158515 0.030606 
752 1948557.158515 0.025000 
753 1948557.158515 0.025000 
754 1948557.158515 0.030177 
755 1948557.158515 0.028638 
756 1948557.158515 0.031218 
757 1948557.158515 0.024050 
758 1948557.158515 0.020597 
759 1948557.158515 0.025000 
760 1948557.158515 0.025000 
761 1948557.158515 0.030113 
762 1948557.158515 0.028638 
763 1948557.158515 0.031116 
764 1948557.158515 0.024050 
765 1948557.158515 0.020591 
766 1948557.158515 0.025000 
767 1948557.158515 0.025000 
768 1948557.158515 0.026703 
769 1948557.158515 0.024890 
770 1948557.158515 0.026902 
771 1948557.158515 0.030318 
772 1948557.158515 0.025000 
773 1948557.158515 0.025000 
774 1948557.158515 0.029702 
775 1948557.158515 0.025000 
776 1948557.158515 0.025000 
777 1948557.158515 0.029136 
778 1948557.158515 0.025000 
779 1948557.158515 0.025000 
780 1948557.158515 0.026590 
781 1948557.158515 0.029434 
782 1948557.158515 0.028636 
783 1948557.158515 0.030554 
784 1948557.158515 0.025000 
785 1948557.158515 0.025000 
786 1948557.158515 0.026806 
787 1948557.158515 0.028638 
788 1948557.158515 0.030392 
789 1948557.158515 0.024050 
790 1948557.158515 0.025000 
791 1948557.158515 0.025000 
792 1948557.158515 0.030113 
793 1948557.158515 0.028638 
794 1948557.158515 0.031116 
795 1948557.158515 0.024050 
796 1948557.158515 0.020591 
797 1948557.158515 0.025000 
798 1948557.158515 0.025000 
799 1948557.158515 0.030246 
800 1948557.158515 0.028474 
801 1948557.158515 0.027090 
802 1948557.158515 0.032245 
803 1948557.158515 0.020566 
804 1948557.158515 0.025000 
805 1948557.158515 0.025000 
806 1948557.158515 0.030458 
807 1948557.158515 0.025000 
808 1948557.158515 0.025000 
809 1948557.158515 0.029161 
810 1948557.158515 0.025000 
811 1948557.158515 0.025000 
812 1948557.158515 0.026629 
813 1948557.158515 0.029379 
814 1948557.158515 0.028345 
815 1948557.158515 0.030607 
816 1948557.158515 0.025000 
817 1948557.158515 0.025000 
818 1948557.158515 0.030177 
819 1948557.158515 0.028638 
820 1948557.158515 0.031218 
821 1948557.158515 0.024050 
822 1948557.158515 0.020597 
823 1948557.158515 0.025000 
824 1948557.158515 0.025000 
825 1948557.158515 0.030235 
826 1948557.158515 0.029352 
827 1948557.158515 0.027957 
828 1948557.158515 0.032310 
829 1948557.158515 0.020566 
830 1948557.158515 0.025000 
831 1948557.158515 0.025000 
832 1948557.158515 0.026806 
833 1948557.158515 0.028638 
834 1948557.158515 0.030392 
835 1948557.158515 0.024050 
836 1948557.158515 0.025000 
837 1948557.158515 0.025000 
838 1948557.158515 0.028676 
839 1948557.158515 0.025000 
840 1948557.158515 0.025000 
841 1948557.158515 0.030442 
842 1948557.158515 0.025000 
843 1948557.158515 0.025000 
844 1948557.158515 0.026806 
845 1948557.158515 0.028638 
846 1948557.158515 0.030392 
847 1948557.158515 0.024050 
848 1948557.158515 0.025000 
849 1948557.158515 0.025000 
850 1948557.158515 0.026629 
851 1948557.158515 0.029379 
852 1948557.158515 0.028345 
853 1948557.158515 0.030607 
854 1948557.158515 0.025000 
855 1948557.158515 0.025000 
856 1948557.158515 0.030235 
857 1948557.158515 0.029352 
858 1948557.158515 0.027957 
859 1948557.158515 0.032310 
860 1948557.158515 0.020566 
861 1948557.158515 0.025000 
862 1948557.158515 0.025000 
863 1948557.158515 0.030177 
864 1948557.158515 0.028638 
865 1948557.158515 0.031220 
866 1948557.158515 0.024050 
867 1948557.158515 0.020597 
868 1948557.158515 0.025000 
869 1948557.158515 0.025000 
870 1948557.158515 0.028676 
871 1948557.158515 0.025000 
872 1948557.158515 0.025000 
873 1948557.158515 0.030458 
874 1948557.158515 0.025000 
875 1948557.158515 0.025000 
876 1948557.158515 0.030177 
877 1948557.158515 0.028638 
878 1948557.158515 0.031218 
879 1948557.158515 0.024050 
880 1948557.158515 0.020597 
881 1948557.158515 0.025000 
882 1948557.158515 0.025000 
883 1948557.158515 0.026739 
884 1948557.158515 0.024890 
885 1948557.158515 0.026861 
886 1948557.158515 0.030365 
887 1948557.158515 0.025000 
888 1948557.158515 0.025000 
889 1948557.158515 0.030235 
890 1948557.158515 0.029352 
891 1948557.158515 0.027957 
892 1948557.158515 0.032310 
893 1948557.158515 0.020566 
894 1948557.158515 0.025000 
895 1948557.158515 0.025000 
896 1948557.158515 0.026806 
897 1948557.158515 0.028638 
898 1948557.158515 0.030394 
899 1948557.158515 0.024050 
900 1948557.158515 0.025000 
901 1948557.158515 0.025000 
902 1948557.158515 0.028676 
903 1948557.158515 0.025000 
904 1948557.158515 0.025000 
905 1948557.158515 0.030458 
906 1948557.158515 0.025000 
907 1948557.158515 0.025000 
908 1948557.158515 0.026806 
909 1948557.158515 0.028638 
910 1948557.158515 0.030392 
911 1948557.158515 0.024050 
912 1948557.158515 0.025000 
913 1948557.158515 0.025000 
914 1948557.158515 0.026739 
915 1948557.158515 0.024890 
916 1948557.158515 0.026861 
917 1948557.158515 0.030365 
918 1948557.158515 0.025000 
919 1948557.158515 0.025000 
920 1948557.158515 0.030235 
921 1948557.158515 0.029352 
922 1948557.158515 0.027957 
923 1948557.158515 0.032310 
924 1948557.158515 0.020566 
925 1948557.158515 0.025000 
926 1948557.158515 0.025000 
927 1948557.158515 0.030177 
928 1948557.158515 0.028638 
929 1948557.158515 0.031220 
930 1948557.158515 0.024050 
931 1948557.158515 0.020597 
932 1948557.158515 0.025000 
933 1948557.158515 0.025000 
934 1948557.158515 0.028676 
935 1948557.158515 0.025000 
936 1948557.158515 0.025000 
937 1948557.158515 0.030458 
938 1948557.158515 0.025000 
939 1948557.158515 0.025000 
940 1948557.158515 0.030113 
941 1948557.158515 0.028638 
942 1948557.158515 0.031115 
943 1948557.158515 0.024050 
944 1948557.158515 0.020591 
945 1948557.158515 0.025000 
946 1948557.158515 0.025000 
947 1948557.158515 0.026704 
948 1948557.158515 0.024890 
949 1948557.158515 0.026861 
950 1948557.158515 0.030318 
951 1948557.158515 0.025000 
952 1948557.158515 0.025000 
953 1948557.158515 0.030235 
954 1948557.158515 0.029352 
955 1948557.158515 0.027957 
956 1948557.158515 0.032310 
957 1948557.158515 0.020566 
958 1948557.158515 0.025000 
959 1948557.158515 0.025000 
960 1948557.158515 0.026806 
961 1948557.158515 0.028638 
962 1948557.158515 0.030394 
963 1948557.158515 0.024050 
964 1948557.158515 0.025000 
965 1948557.158515 0.025000 
966 1948557.158515 0.028676 
967 1948557.158515 0.025000 
968 1948557.158515 0.025000 
969 1948557.158515 0.030458 
970 1948557.158515 0.025000 
971 1948557.158515 0.025000 
972 1948557.158515 0.026806 
973 1948557.158515 0.028638 
974 1948557.158515 0.030392 
975 1948557.158515 0.024050 
976 1948557.158515 0.025000 
977 1948557.158515 0.025000 
978 1948557.158515 0.026703 
979 1948557.158515 0.024890 
980 1948557.158515 0.026861 
981 1948557.158515 0.030318 
982 1948557.158515 0.025000 
983 1948557.158515 0.025000 
984 1948557.158515 0.030245 
985 1948557.158515 0.028468 
986 1948557.158515 0.027164 
987 1948557.158515 0.032240 
988 1948557.158515 0.020566 
989 1948557.158515 0.025000 
990 1948557.158515 0.025000 
991 1948557.158515 0.030113 
992 1948557.158515 0.028638 
993 1948557.158515 0.031116 
994 1948557.158515 0.024050 
995 1948557.158515 0.020591 
996 1948557.158515 0.025000 
997 1948557.158515 0.025000 
998 1948557.158515 0.028676 
999 1948557.158515 0.025000 
1000 1948557.158515 0.025000 
1001 1948557.158515 0.030458 
1002 1948557.158515 0.025000 
1003 1948557.158515 0.025000 
1004 1948557.158515 0.030177 
1005 1948557.158515 0.028638 
1006 1948557.158515 0.031220 
1007 1948557.158515 0.024050 
1008 1948557.158515 0.020597 
1009 1948557.158515 0.025000 
1010 1948557.158515 0.025000 
1011 1948557.158515 0.026739 
1012 1948557.158515 0.024890 
1013 1948557.158515 0.026861 
1014 1948557.158515 0.030365 
1015 1948557.158515 0.025000 
1016 1948557.158515 0.025000 
1017 1948557.158515 0.030245 
1018 1948557.158515 0.028468 
1019 1948557.158515 0.027164 
1020 1948557.158515 0.032240 
1021 1948557.158515 0.020566 
1022 1948557.158515 0.025000 
1023 1948557.158515 0.025000 
1024 1948557.158515 0.026806 
1025 1948557.158515 0.028638 
1026 1948557.158515 0.030394 
1027 1948557.158515 0.024050 
1028 1948557.158515 0.025000 
1029 1948557.158515 0.025000 
1030 1948557.158515 0.028676 