LAMMPS DATA FILE 

17893 atoms 
39579 bonds 

5 atom types 
39579 bond types 

-3.689559 3.690441 xlo xhi 
-3.686454 3.693546 ylo yhi 
-0.100000 0.100000 zlo zhi 

Bond Coeffs 

1 1948557.158515 0.025000 
2 1948557.158515 0.025000 
3 1948557.158515 0.023144 
4 1948557.158515 0.029238 
5 1948557.158515 0.017834 
6 1948557.158515 0.020625 
7 1948557.158515 0.025000 
8 1948557.158515 0.025000 
9 1948557.158515 0.023144 
10 1948557.158515 0.029238 
11 1948557.158515 0.017834 
12 1948557.158515 0.020625 
13 1948557.158515 0.025000 
14 1948557.158515 0.025000 
15 1948557.158515 0.021836 
16 1948557.158515 0.026927 
17 1948557.158515 0.017775 
18 1948557.158515 0.025000 
19 1948557.158515 0.025000 
20 1948557.158515 0.022889 
21 1948557.158515 0.027145 
22 1948557.158515 0.017834 
23 1948557.158515 0.020625 
24 1948557.158515 0.025000 
25 1948557.158515 0.025000 
26 1948557.158515 0.022889 
27 1948557.158515 0.027145 
28 1948557.158515 0.017834 
29 1948557.158515 0.020625 
30 1948557.158515 0.025000 
31 1948557.158515 0.025000 
32 1948557.158515 0.023144 
33 1948557.158515 0.029238 
34 1948557.158515 0.017834 
35 1948557.158515 0.020625 
36 1948557.158515 0.025000 
37 1948557.158515 0.025000 
38 1948557.158515 0.023244 
39 1948557.158515 0.027196 
40 1948557.158515 0.017369 
41 1948557.158515 0.020233 
42 1948557.158515 0.025000 
43 1948557.158515 0.025000 
44 1948557.158515 0.023501 
45 1948557.158515 0.029147 
46 1948557.158515 0.017369 
47 1948557.158515 0.020233 
48 1948557.158515 0.025000 
49 1948557.158515 0.025000 
50 1948557.158515 0.021676 
51 1948557.158515 0.022618 
52 1948557.158515 0.027426 
53 1948557.158515 0.019022 
54 1948557.158515 0.025000 
55 1948557.158515 0.025000 
56 1948557.158515 0.021676 
57 1948557.158515 0.022618 
58 1948557.158515 0.027147 
59 1948557.158515 0.019022 
60 1948557.158515 0.025000 
61 1948557.158515 0.025000 
62 1948557.158515 0.021836 
63 1948557.158515 0.026927 
64 1948557.158515 0.017667 
65 1948557.158515 0.025000 
66 1948557.158515 0.025000 
67 1948557.158515 0.023244 
68 1948557.158515 0.027196 
69 1948557.158515 0.017369 
70 1948557.158515 0.020233 
71 1948557.158515 0.025000 
72 1948557.158515 0.025000 
73 1948557.158515 0.022889 
74 1948557.158515 0.027145 
75 1948557.158515 0.017834 
76 1948557.158515 0.020625 
77 1948557.158515 0.025000 
78 1948557.158515 0.025000 
79 1948557.158515 0.023144 
80 1948557.158515 0.029238 
81 1948557.158515 0.017834 
82 1948557.158515 0.020625 
83 1948557.158515 0.025000 
84 1948557.158515 0.025000 
85 1948557.158515 0.023244 
86 1948557.158515 0.027196 
87 1948557.158515 0.017369 
88 1948557.158515 0.020233 
89 1948557.158515 0.025000 
90 1948557.158515 0.025000 
91 1948557.158515 0.023501 
92 1948557.158515 0.029147 
93 1948557.158515 0.017369 
94 1948557.158515 0.020233 
95 1948557.158515 0.025000 
96 1948557.158515 0.025000 
97 1948557.158515 0.022889 
98 1948557.158515 0.027145 
99 1948557.158515 0.017834 
100 1948557.158515 0.020625 
101 1948557.158515 0.025000 
102 1948557.158515 0.025000 
103 1948557.158515 0.023144 
104 1948557.158515 0.029238 
105 1948557.158515 0.017834 
106 1948557.158515 0.020625 
107 1948557.158515 0.025000 
108 1948557.158515 0.025000 
109 1948557.158515 0.023144 
110 1948557.158515 0.029238 
111 1948557.158515 0.017834 
112 1948557.158515 0.020625 
113 1948557.158515 0.025000 
114 1948557.158515 0.025000 
115 1948557.158515 0.023244 
116 1948557.158515 0.027196 
117 1948557.158515 0.017369 
118 1948557.158515 0.020233 
119 1948557.158515 0.025000 
120 1948557.158515 0.025000 
121 1948557.158515 0.023501 
122 1948557.158515 0.029147 
123 1948557.158515 0.017369 
124 1948557.158515 0.020233 
125 1948557.158515 0.025000 
126 1948557.158515 0.025000 
127 1948557.158515 0.023244 
128 1948557.158515 0.027196 
129 1948557.158515 0.017369 
130 1948557.158515 0.020233 
131 1948557.158515 0.025000 
132 1948557.158515 0.025000 
133 1948557.158515 0.023501 
134 1948557.158515 0.029147 
135 1948557.158515 0.017369 
136 1948557.158515 0.020233 
137 1948557.158515 0.025000 
138 1948557.158515 0.025000 
139 1948557.158515 0.023244 
140 1948557.158515 0.027196 
141 1948557.158515 0.017369 
142 1948557.158515 0.020233 
143 1948557.158515 0.025000 
144 1948557.158515 0.025000 
145 1948557.158515 0.023144 
146 1948557.158515 0.029238 
147 1948557.158515 0.017834 
148 1948557.158515 0.021189 
149 1948557.158515 0.025000 
150 1948557.158515 0.025000 
151 1948557.158515 0.021836 
152 1948557.158515 0.026927 
153 1948557.158515 0.017811 
154 1948557.158515 0.025000 
155 1948557.158515 0.025000 
156 1948557.158515 0.023501 
157 1948557.158515 0.029147 
158 1948557.158515 0.017369 
159 1948557.158515 0.020233 
160 1948557.158515 0.025000 
161 1948557.158515 0.025000 
162 1948557.158515 0.022889 
163 1948557.158515 0.027145 
164 1948557.158515 0.017834 
165 1948557.158515 0.020625 
166 1948557.158515 0.025000 
167 1948557.158515 0.025000 
168 1948557.158515 0.023144 
169 1948557.158515 0.029238 
170 1948557.158515 0.017834 
171 1948557.158515 0.021188 
172 1948557.158515 0.025000 
173 1948557.158515 0.025000 
174 1948557.158515 0.022757 
175 1948557.158515 0.027115 
176 1948557.158515 0.017834 
177 1948557.158515 0.020625 
178 1948557.158515 0.025000 
179 1948557.158515 0.025000 
180 1948557.158515 0.023144 
181 1948557.158515 0.029238 
182 1948557.158515 0.017834 
183 1948557.158515 0.020625 
184 1948557.158515 0.025000 
185 1948557.158515 0.025000 
186 1948557.158515 0.022889 
187 1948557.158515 0.027145 
188 1948557.158515 0.017834 
189 1948557.158515 0.020625 
190 1948557.158515 0.025000 
191 1948557.158515 0.025000 
192 1948557.158515 0.021100 
193 1948557.158515 0.026923 
194 1948557.158515 0.017783 
195 1948557.158515 0.025000 
196 1948557.158515 0.025000 
197 1948557.158515 0.022889 
198 1948557.158515 0.027145 
199 1948557.158515 0.017834 
200 1948557.158515 0.021189 
201 1948557.158515 0.025000 
202 1948557.158515 0.025000 
203 1948557.158515 0.021548 
204 1948557.158515 0.026880 
205 1948557.158515 0.017720 
206 1948557.158515 0.025000 
207 1948557.158515 0.025000 
208 1948557.158515 0.021548 
209 1948557.158515 0.026880 
210 1948557.158515 0.017757 
211 1948557.158515 0.025000 
212 1948557.158515 0.025000 
213 1948557.158515 0.022889 
214 1948557.158515 0.027145 
215 1948557.158515 0.017834 
216 1948557.158515 0.020625 
217 1948557.158515 0.025000 
218 1948557.158515 0.025000 
219 1948557.158515 0.023144 
220 1948557.158515 0.029238 
221 1948557.158515 0.017834 
222 1948557.158515 0.020625 
223 1948557.158515 0.025000 
224 1948557.158515 0.025000 
225 1948557.158515 0.021548 
226 1948557.158515 0.026880 
227 1948557.158515 0.017757 
228 1948557.158515 0.025000 
229 1948557.158515 0.025000 
230 1948557.158515 0.023501 
231 1948557.158515 0.029147 
232 1948557.158515 0.017369 
233 1948557.158515 0.020233 
234 1948557.158515 0.025000 
235 1948557.158515 0.025000 
236 1948557.158515 0.022889 
237 1948557.158515 0.027145 
238 1948557.158515 0.017834 
239 1948557.158515 0.021189 
240 1948557.158515 0.025000 
241 1948557.158515 0.025000 
242 1948557.158515 0.022889 
243 1948557.158515 0.027145 
244 1948557.158515 0.017834 
245 1948557.158515 0.021189 
246 1948557.158515 0.025000 
247 1948557.158515 0.025000 
248 1948557.158515 0.021548 
249 1948557.158515 0.026880 
250 1948557.158515 0.017699 
251 1948557.158515 0.025000 
252 1948557.158515 0.025000 
253 1948557.158515 0.021548 
254 1948557.158515 0.026880 
255 1948557.158515 0.017699 
256 1948557.158515 0.025000 
257 1948557.158515 0.025000 
258 1948557.158515 0.022889 
259 1948557.158515 0.027145 
260 1948557.158515 0.017834 
261 1948557.158515 0.020625 
262 1948557.158515 0.025000 
263 1948557.158515 0.025000 
264 1948557.158515 0.023144 
265 1948557.158515 0.029238 
266 1948557.158515 0.017834 
267 1948557.158515 0.021189 
268 1948557.158515 0.025000 
269 1948557.158515 0.025000 
270 1948557.158515 0.021548 
271 1948557.158515 0.026880 
272 1948557.158515 0.017757 
273 1948557.158515 0.025000 
274 1948557.158515 0.025000 
275 1948557.158515 0.021100 
276 1948557.158515 0.026923 
277 1948557.158515 0.017761 
278 1948557.158515 0.025000 
279 1948557.158515 0.025000 
280 1948557.158515 0.022889 
281 1948557.158515 0.027145 
282 1948557.158515 0.017834 
283 1948557.158515 0.021188 
284 1948557.158515 0.025000 
285 1948557.158515 0.025000 
286 1948557.158515 0.021590 
287 1948557.158515 0.022618 
288 1948557.158515 0.027407 
289 1948557.158515 0.019022 
290 1948557.158515 0.025000 
291 1948557.158515 0.025000 
292 1948557.158515 0.023144 
293 1948557.158515 0.029238 
294 1948557.158515 0.017834 
295 1948557.158515 0.020625 
296 1948557.158515 0.025000 
297 1948557.158515 0.025000 
298 1948557.158515 0.021548 
299 1948557.158515 0.026880 
300 1948557.158515 0.017699 
301 1948557.158515 0.025000 
302 1948557.158515 0.025000 
303 1948557.158515 0.021100 
304 1948557.158515 0.026923 
305 1948557.158515 0.017783 
306 1948557.158515 0.025000 
307 1948557.158515 0.025000 
308 1948557.158515 0.021590 
309 1948557.158515 0.022618 
310 1948557.158515 0.027406 
311 1948557.158515 0.019022 
312 1948557.158515 0.025000 
313 1948557.158515 0.025000 
314 1948557.158515 0.021590 
315 1948557.158515 0.022618 
316 1948557.158515 0.027097 
317 1948557.158515 0.019022 
318 1948557.158515 0.025000 
319 1948557.158515 0.025000 
320 1948557.158515 0.021548 
321 1948557.158515 0.026880 
322 1948557.158515 0.017757 
323 1948557.158515 0.025000 
324 1948557.158515 0.025000 
325 1948557.158515 0.021100 
326 1948557.158515 0.026923 
327 1948557.158515 0.017783 
328 1948557.158515 0.025000 
329 1948557.158515 0.025000 
330 1948557.158515 0.021590 
331 1948557.158515 0.022618 
332 1948557.158515 0.027406 
333 1948557.158515 0.019022 
334 1948557.158515 0.025000 
335 1948557.158515 0.025000 
336 1948557.158515 0.021590 
337 1948557.158515 0.022618 
338 1948557.158515 0.027097 
339 1948557.158515 0.019022 
340 1948557.158515 0.025000 
341 1948557.158515 0.025000 
342 1948557.158515 0.021548 
343 1948557.158515 0.026880 
344 1948557.158515 0.017757 
345 1948557.158515 0.025000 
346 1948557.158515 0.025000 
347 1948557.158515 0.021100 
348 1948557.158515 0.026923 
349 1948557.158515 0.017783 
350 1948557.158515 0.025000 
351 1948557.158515 0.025000 
352 1948557.158515 0.021676 
353 1948557.158515 0.022618 
354 1948557.158515 0.027426 
355 1948557.158515 0.019022 
356 1948557.158515 0.025000 
357 1948557.158515 0.025000 
358 1948557.158515 0.021590 
359 1948557.158515 0.022618 
360 1948557.158515 0.027097 
361 1948557.158515 0.019022 
362 1948557.158515 0.025000 
363 1948557.158515 0.025000 
364 1948557.158515 0.021548 
365 1948557.158515 0.026880 
366 1948557.158515 0.017757 
367 1948557.158515 0.025000 
368 1948557.158515 0.025000 
369 1948557.158515 0.021100 
370 1948557.158515 0.026923 
371 1948557.158515 0.017783 
372 1948557.158515 0.025000 
373 1948557.158515 0.025000 
374 1948557.158515 0.021590 
375 1948557.158515 0.022618 
376 1948557.158515 0.027406 
377 1948557.158515 0.019022 
378 1948557.158515 0.025000 
379 1948557.158515 0.025000 
380 1948557.158515 0.021548 
381 1948557.158515 0.026880 
382 1948557.158515 0.017757 
383 1948557.158515 0.025000 
384 1948557.158515 0.025000 
385 1948557.158515 0.021100 
386 1948557.158515 0.026923 
387 1948557.158515 0.017815 
388 1948557.158515 0.025000 
389 1948557.158515 0.025000 
390 1948557.158515 0.021590 
391 1948557.158515 0.022618 
392 1948557.158515 0.027406 
393 1948557.158515 0.019022 
394 1948557.158515 0.025000 
395 1948557.158515 0.025000 
396 1948557.158515 0.023144 
397 1948557.158515 0.029238 
398 1948557.158515 0.017834 
399 1948557.158515 0.020625 
400 1948557.158515 0.025000 
401 1948557.158515 0.025000 
402 1948557.158515 0.021548 
403 1948557.158515 0.026880 
404 1948557.158515 0.017757 
405 1948557.158515 0.025000 
406 1948557.158515 0.025000 
407 1948557.158515 0.023501 
408 1948557.158515 0.029147 
409 1948557.158515 0.017369 
410 1948557.158515 0.020233 
411 1948557.158515 0.025000 
412 1948557.158515 0.025000 
413 1948557.158515 0.021590 
414 1948557.158515 0.022618 
415 1948557.158515 0.027406 
416 1948557.158515 0.019022 
417 1948557.158515 0.025000 
418 1948557.158515 0.025000 
419 1948557.158515 0.021590 
420 1948557.158515 0.022618 
421 1948557.158515 0.027406 
422 1948557.158515 0.019022 
423 1948557.158515 0.025000 
424 1948557.158515 0.025000 
425 1948557.158515 0.021548 
426 1948557.158515 0.026880 
427 1948557.158515 0.017757 
428 1948557.158515 0.025000 
429 1948557.158515 0.025000 
430 1948557.158515 0.021100 
431 1948557.158515 0.026923 
432 1948557.158515 0.017783 
433 1948557.158515 0.025000 
434 1948557.158515 0.025000 
435 1948557.158515 0.021590 
436 1948557.158515 0.022618 
437 1948557.158515 0.027406 
438 1948557.158515 0.019022 
439 1948557.158515 0.025000 
440 1948557.158515 0.025000 
441 1948557.158515 0.021590 
442 1948557.158515 0.022618 
443 1948557.158515 0.027097 
444 1948557.158515 0.019022 
445 1948557.158515 0.025000 
446 1948557.158515 0.025000 
447 1948557.158515 0.021548 
448 1948557.158515 0.026880 
449 1948557.158515 0.017757 
450 1948557.158515 0.025000 
451 1948557.158515 0.025000 
452 1948557.158515 0.021100 
453 1948557.158515 0.026923 
454 1948557.158515 0.017783 
455 1948557.158515 0.025000 
456 1948557.158515 0.025000 
457 1948557.158515 0.021590 
458 1948557.158515 0.022618 
459 1948557.158515 0.027406 
460 1948557.158515 0.019022 
461 1948557.158515 0.025000 
462 1948557.158515 0.025000 
463 1948557.158515 0.021548 
464 1948557.158515 0.026880 
465 1948557.158515 0.017757 
466 1948557.158515 0.025000 
467 1948557.158515 0.025000 
468 1948557.158515 0.021100 
469 1948557.158515 0.026923 
470 1948557.158515 0.017815 
471 1948557.158515 0.025000 
472 1948557.158515 0.025000 
473 1948557.158515 0.021100 
474 1948557.158515 0.026923 
475 1948557.158515 0.017783 
476 1948557.158515 0.026852 
477 1948557.158515 0.028638 
478 1948557.158515 0.030471 
479 1948557.158515 0.024050 
480 1948557.158515 0.029635 
481 1948557.158515 0.020579 
482 1948557.158515 0.030155 
483 1948557.158515 0.024890 
484 1948557.158515 0.028636 
485 1948557.158515 0.031350 
486 1948557.158515 0.029633 
487 1948557.158515 0.029434 
488 1948557.158515 0.029572 
489 1948557.158515 0.029182 
490 1948557.158515 0.020579 
491 1948557.158515 0.030155 
492 1948557.158515 0.024890 
493 1948557.158515 0.028636 
494 1948557.158515 0.031350 
495 1948557.158515 0.026852 
496 1948557.158515 0.028638 
497 1948557.158515 0.030470 
498 1948557.158515 0.024050 
499 1948557.158515 0.026852 
500 1948557.158515 0.028638 
501 1948557.158515 0.030471 
502 1948557.158515 0.024050 
503 1948557.158515 0.020579 
504 1948557.158515 0.030154 
505 1948557.158515 0.024890 
506 1948557.158515 0.026955 
507 1948557.158515 0.031343 
508 1948557.158515 0.029635 
509 1948557.158515 0.028676 
510 1948557.158515 0.029572 
511 1948557.158515 0.028676 
512 1948557.158515 0.020579 
513 1948557.158515 0.030155 
514 1948557.158515 0.024890 
515 1948557.158515 0.028636 
516 1948557.158515 0.031350 
517 1948557.158515 0.026851 
518 1948557.158515 0.028638 
519 1948557.158515 0.030472 
520 1948557.158515 0.024050 
521 1948557.158515 0.026851 
522 1948557.158515 0.028638 
523 1948557.158515 0.030469 
524 1948557.158515 0.024050 
525 1948557.158515 0.020579 
526 1948557.158515 0.030154 
527 1948557.158515 0.024890 
528 1948557.158515 0.026955 
529 1948557.158515 0.031343 
530 1948557.158515 0.030442 
531 1948557.158515 0.028676 
532 1948557.158515 0.030442 
533 1948557.158515 0.028676 
534 1948557.158515 0.020579 
535 1948557.158515 0.030155 
536 1948557.158515 0.024890 
537 1948557.158515 0.028636 
538 1948557.158515 0.031350 
539 1948557.158515 0.026852 
540 1948557.158515 0.028638 
541 1948557.158515 0.030472 
542 1948557.158515 0.024050 
543 1948557.158515 0.026852 
544 1948557.158515 0.028638 
545 1948557.158515 0.030471 
546 1948557.158515 0.024050 
547 1948557.158515 0.020579 
548 1948557.158515 0.030154 
549 1948557.158515 0.024890 
550 1948557.158515 0.026955 
551 1948557.158515 0.031343 
552 1948557.158515 0.029635 
553 1948557.158515 0.028676 
554 1948557.158515 0.029572 
555 1948557.158515 0.028676 
556 1948557.158515 0.020579 
557 1948557.158515 0.030155 
558 1948557.158515 0.024890 
559 1948557.158515 0.028636 
560 1948557.158515 0.031350 
561 1948557.158515 0.028676 
562 1948557.158515 0.026852 
563 1948557.158515 0.028638 
564 1948557.158515 0.030471 
565 1948557.158515 0.024050 
566 1948557.158515 0.026851 
567 1948557.158515 0.028638 
568 1948557.158515 0.030472 
569 1948557.158515 0.024050 
570 1948557.158515 0.029635 
571 1948557.158515 0.020579 
572 1948557.158515 0.030154 
573 1948557.158515 0.024890 
574 1948557.158515 0.026902 
575 1948557.158515 0.031343 
576 1948557.158515 0.029633 
577 1948557.158515 0.029136 
578 1948557.158515 0.029572 
579 1948557.158515 0.028676 
580 1948557.158515 0.020579 
581 1948557.158515 0.030155 
582 1948557.158515 0.024890 
583 1948557.158515 0.028636 
584 1948557.158515 0.031350 
585 1948557.158515 0.026851 
586 1948557.158515 0.028638 
587 1948557.158515 0.030472 
588 1948557.158515 0.024050 
589 1948557.158515 0.026851 
590 1948557.158515 0.028638 
591 1948557.158515 0.030471 
592 1948557.158515 0.024050 
593 1948557.158515 0.020579 
594 1948557.158515 0.030154 
595 1948557.158515 0.024890 
596 1948557.158515 0.026955 
597 1948557.158515 0.031343 
598 1948557.158515 0.029644 
599 1948557.158515 0.028676 
600 1948557.158515 0.029649 
601 1948557.158515 0.028676 
602 1948557.158515 0.020579 
603 1948557.158515 0.030154 
604 1948557.158515 0.024890 
605 1948557.158515 0.026861 
606 1948557.158515 0.031343 
607 1948557.158515 0.026851 
608 1948557.158515 0.028638 
609 1948557.158515 0.030472 
610 1948557.158515 0.024050 
611 1948557.158515 0.026851 
612 1948557.158515 0.028638 
613 1948557.158515 0.030471 
614 1948557.158515 0.024050 
615 1948557.158515 0.030154 
616 1948557.158515 0.020579 
617 1948557.158515 0.024890 
618 1948557.158515 0.026955 
619 1948557.158515 0.031343 
620 1948557.158515 0.030458 
621 1948557.158515 0.028676 
622 1948557.158515 0.029649 
623 1948557.158515 0.028676 
624 1948557.158515 0.030154 
625 1948557.158515 0.020579 
626 1948557.158515 0.024890 
627 1948557.158515 0.026861 
628 1948557.158515 0.031343 
629 1948557.158515 0.026851 
630 1948557.158515 0.028638 
631 1948557.158515 0.030472 
632 1948557.158515 0.024050 
633 1948557.158515 0.026851 
634 1948557.158515 0.028638 
635 1948557.158515 0.030469 
636 1948557.158515 0.024050 
637 1948557.158515 0.030154 
638 1948557.158515 0.024890 
639 1948557.158515 0.020579 
640 1948557.158515 0.026955 
641 1948557.158515 0.031343 
642 1948557.158515 0.030442 
643 1948557.158515 0.028676 
644 1948557.158515 0.030458 
645 1948557.158515 0.028676 
646 1948557.158515 0.030154 
647 1948557.158515 0.024890 
648 1948557.158515 0.020579 
649 1948557.158515 0.026861 
650 1948557.158515 0.031343 
651 1948557.158515 0.028676 
652 1948557.158515 0.026851 
653 1948557.158515 0.028638 
654 1948557.158515 0.030472 
655 1948557.158515 0.024050 
656 1948557.158515 0.025000 
657 1948557.158515 0.025000 
658 1948557.158515 0.030113 
659 1948557.158515 0.020591 
660 1948557.158515 0.028638 
661 1948557.158515 0.031116 
662 1948557.158515 0.024050 
663 1948557.158515 0.025000 
664 1948557.158515 0.025000 
665 1948557.158515 0.026601 
666 1948557.158515 0.029415 
667 1948557.158515 0.028636 
668 1948557.158515 0.030598 
669 1948557.158515 0.025000 
670 1948557.158515 0.025000 
671 1948557.158515 0.029699 
672 1948557.158515 0.025000 
673 1948557.158515 0.025000 
674 1948557.158515 0.029434 
675 1948557.158515 0.025000 
676 1948557.158515 0.025000 
677 1948557.158515 0.026628 
678 1948557.158515 0.029429 
679 1948557.158515 0.028636 
680 1948557.158515 0.030606 
681 1948557.158515 0.025000 
682 1948557.158515 0.025000 
683 1948557.158515 0.029182 
684 1948557.158515 0.025000 
685 1948557.158515 0.025000 
686 1948557.158515 0.030177 
687 1948557.158515 0.020597 
688 1948557.158515 0.028638 
689 1948557.158515 0.031219 
690 1948557.158515 0.024050 
691 1948557.158515 0.025000 
692 1948557.158515 0.025000 
693 1948557.158515 0.030113 
694 1948557.158515 0.020591 
695 1948557.158515 0.028638 
696 1948557.158515 0.031115 
697 1948557.158515 0.024050 
698 1948557.158515 0.025000 
699 1948557.158515 0.025000 
700 1948557.158515 0.029635 
701 1948557.158515 0.025000 
702 1948557.158515 0.025000 
703 1948557.158515 0.026703 
704 1948557.158515 0.024890 
705 1948557.158515 0.026955 
706 1948557.158515 0.030317 
707 1948557.158515 0.025000 
708 1948557.158515 0.025000 
709 1948557.158515 0.029649 
710 1948557.158515 0.025000 
711 1948557.158515 0.025000 
712 1948557.158515 0.028676 
713 1948557.158515 0.025000 
714 1948557.158515 0.025000 
715 1948557.158515 0.026739 
716 1948557.158515 0.024890 
717 1948557.158515 0.026861 
718 1948557.158515 0.030365 
719 1948557.158515 0.025000 
720 1948557.158515 0.025000 
721 1948557.158515 0.030113 
722 1948557.158515 0.020591 
723 1948557.158515 0.028638 
724 1948557.158515 0.031115 
725 1948557.158515 0.024050 
726 1948557.158515 0.025000 
727 1948557.158515 0.025000 
728 1948557.158515 0.030177 
729 1948557.158515 0.020597 
730 1948557.158515 0.028638 
731 1948557.158515 0.031219 
732 1948557.158515 0.024050 
733 1948557.158515 0.025000 
734 1948557.158515 0.025000 
735 1948557.158515 0.026601 
736 1948557.158515 0.029415 
737 1948557.158515 0.028636 
738 1948557.158515 0.030598 
739 1948557.158515 0.025000 
740 1948557.158515 0.025000 
741 1948557.158515 0.029699 
742 1948557.158515 0.025000 
743 1948557.158515 0.025000 
744 1948557.158515 0.029434 
745 1948557.158515 0.025000 
746 1948557.158515 0.025000 
747 1948557.158515 0.026627 
748 1948557.158515 0.029429 
749 1948557.158515 0.028636 
750 1948557.158515 0.030606 
751 1948557.158515 0.025000 
752 1948557.158515 0.025000 
753 1948557.158515 0.029182 
754 1948557.158515 0.025000 
755 1948557.158515 0.025000 
756 1948557.158515 0.030177 
757 1948557.158515 0.020597 
758 1948557.158515 0.028638 
759 1948557.158515 0.031219 
760 1948557.158515 0.024050 
761 1948557.158515 0.025000 
762 1948557.158515 0.025000 
763 1948557.158515 0.030113 
764 1948557.158515 0.020591 
765 1948557.158515 0.028638 
766 1948557.158515 0.031115 
767 1948557.158515 0.024050 
768 1948557.158515 0.025000 
769 1948557.158515 0.025000 
770 1948557.158515 0.029635 
771 1948557.158515 0.025000 
772 1948557.158515 0.025000 
773 1948557.158515 0.026703 
774 1948557.158515 0.024890 
775 1948557.158515 0.026902 
776 1948557.158515 0.030318 
777 1948557.158515 0.025000 
778 1948557.158515 0.025000 
779 1948557.158515 0.029693 
780 1948557.158515 0.025000 
781 1948557.158515 0.025000 
782 1948557.158515 0.029136 
783 1948557.158515 0.025000 
784 1948557.158515 0.025000 
785 1948557.158515 0.026627 
786 1948557.158515 0.029429 
787 1948557.158515 0.028636 
788 1948557.158515 0.030606 
789 1948557.158515 0.025000 
790 1948557.158515 0.025000 
791 1948557.158515 0.030177 
792 1948557.158515 0.028638 
793 1948557.158515 0.020597 
794 1948557.158515 0.031218 
795 1948557.158515 0.024050 
796 1948557.158515 0.025000 
797 1948557.158515 0.025000 
798 1948557.158515 0.030237 
799 1948557.158515 0.029374 
800 1948557.158515 0.027840 
801 1948557.158515 0.032322 
802 1948557.158515 0.020566 
803 1948557.158515 0.025000 
804 1948557.158515 0.025000 
805 1948557.158515 0.026807 
806 1948557.158515 0.028638 
807 1948557.158515 0.030393 
808 1948557.158515 0.024050 
809 1948557.158515 0.025000 
810 1948557.158515 0.025000 
811 1948557.158515 0.029162 
812 1948557.158515 0.025000 
813 1948557.158515 0.025000 
814 1948557.158515 0.029699 
815 1948557.158515 0.025000 
816 1948557.158515 0.025000 
817 1948557.158515 0.028676 
818 1948557.158515 0.025000 
819 1948557.158515 0.025000 
820 1948557.158515 0.026627 
821 1948557.158515 0.029429 
822 1948557.158515 0.028636 
823 1948557.158515 0.030606 
824 1948557.158515 0.025000 
825 1948557.158515 0.025000 
826 1948557.158515 0.026806 
827 1948557.158515 0.028638 
828 1948557.158515 0.030392 
829 1948557.158515 0.024050 
830 1948557.158515 0.025000 
831 1948557.158515 0.025000 
832 1948557.158515 0.030177 
833 1948557.158515 0.028638 
834 1948557.158515 0.031219 
835 1948557.158515 0.024050 
836 1948557.158515 0.020597 
837 1948557.158515 0.025000 
838 1948557.158515 0.025000 
839 1948557.158515 0.030235 
840 1948557.158515 0.029352 
841 1948557.158515 0.027957 
842 1948557.158515 0.032310 
843 1948557.158515 0.020566 
844 1948557.158515 0.025000 
845 1948557.158515 0.025000 
846 1948557.158515 0.029635 
847 1948557.158515 0.025000 
848 1948557.158515 0.025000 
849 1948557.158515 0.028676 
850 1948557.158515 0.025000 
851 1948557.158515 0.025000 
852 1948557.158515 0.029693 
853 1948557.158515 0.025000 
854 1948557.158515 0.025000 
855 1948557.158515 0.030113 
856 1948557.158515 0.028638 
857 1948557.158515 0.031115 
858 1948557.158515 0.024050 
859 1948557.158515 0.020591 
860 1948557.158515 0.025000 
861 1948557.158515 0.025000 
862 1948557.158515 0.026627 
863 1948557.158515 0.029429 
864 1948557.158515 0.028636 
865 1948557.158515 0.030606 
866 1948557.158515 0.025000 
867 1948557.158515 0.025000 
868 1948557.158515 0.026601 
869 1948557.158515 0.029415 
870 1948557.158515 0.028636 
871 1948557.158515 0.030598 
872 1948557.158515 0.025000 
873 1948557.158515 0.025000 
874 1948557.158515 0.030177 
875 1948557.158515 0.028638 
876 1948557.158515 0.031219 
877 1948557.158515 0.024050 
878 1948557.158515 0.020597 
879 1948557.158515 0.025000 
880 1948557.158515 0.025000 
881 1948557.158515 0.029434 
882 1948557.158515 0.025000 
883 1948557.158515 0.025000 
884 1948557.158515 0.029702 
885 1948557.158515 0.025000 
886 1948557.158515 0.025000 
887 1948557.158515 0.029182 
888 1948557.158515 0.025000 
889 1948557.158515 0.025000 
890 1948557.158515 0.026590 
891 1948557.158515 0.029434 
892 1948557.158515 0.028636 
893 1948557.158515 0.030554 
894 1948557.158515 0.025000 
895 1948557.158515 0.025000 
896 1948557.158515 0.030113 
897 1948557.158515 0.028638 
898 1948557.158515 0.031115 
899 1948557.158515 0.024050 
900 1948557.158515 0.020591 
901 1948557.158515 0.025000 
902 1948557.158515 0.025000 
903 1948557.158515 0.030113 
904 1948557.158515 0.028638 
905 1948557.158515 0.031116 
906 1948557.158515 0.024050 
907 1948557.158515 0.020591 
908 1948557.158515 0.025000 
909 1948557.158515 0.025000 
910 1948557.158515 0.026601 
911 1948557.158515 0.029415 
912 1948557.158515 0.028636 
913 1948557.158515 0.030598 
914 1948557.158515 0.025000 
915 1948557.158515 0.025000 
916 1948557.158515 0.029635 
917 1948557.158515 0.025000 
918 1948557.158515 0.025000 
919 1948557.158515 0.029434 
920 1948557.158515 0.025000 
921 1948557.158515 0.025000 
922 1948557.158515 0.029696 
923 1948557.158515 0.025000 
924 1948557.158515 0.025000 
925 1948557.158515 0.030113 
926 1948557.158515 0.028638 
927 1948557.158515 0.031115 
928 1948557.158515 0.024050 
929 1948557.158515 0.020591 
930 1948557.158515 0.025000 
931 1948557.158515 0.025000 
932 1948557.158515 0.026590 
933 1948557.158515 0.029434 
934 1948557.158515 0.028636 
935 1948557.158515 0.030554 
936 1948557.158515 0.025000 
937 1948557.158515 0.025000 
938 1948557.158515 0.028676 
939 1948557.158515 0.025000 
940 1948557.158515 0.025000 
941 1948557.158515 0.026703 
942 1948557.158515 0.024890 
943 1948557.158515 0.026955 
944 1948557.158515 0.030317 
945 1948557.158515 0.025000 
946 1948557.158515 0.025000 
947 1948557.158515 0.026806 
948 1948557.158515 0.028638 
949 1948557.158515 0.030394 
950 1948557.158515 0.024050 
951 1948557.158515 0.025000 
952 1948557.158515 0.025000 
953 1948557.158515 0.030113 
954 1948557.158515 0.028638 
955 1948557.158515 0.031116 
956 1948557.158515 0.024050 
957 1948557.158515 0.020591 
958 1948557.158515 0.025000 
959 1948557.158515 0.025000 
960 1948557.158515 0.030246 
961 1948557.158515 0.028474 
962 1948557.158515 0.027090 
963 1948557.158515 0.032245 
964 1948557.158515 0.020566 
965 1948557.158515 0.025000 
966 1948557.158515 0.025000 
967 1948557.158515 0.030458 
968 1948557.158515 0.025000 
969 1948557.158515 0.025000 
970 1948557.158515 0.029161 
971 1948557.158515 0.025000 
972 1948557.158515 0.025000 
973 1948557.158515 0.030458 
974 1948557.158515 0.025000 
975 1948557.158515 0.025000 
976 1948557.158515 0.028676 
977 1948557.158515 0.025000 
978 1948557.158515 0.025000 
979 1948557.158515 0.026703 
980 1948557.158515 0.024890 
981 1948557.158515 0.026861 
982 1948557.158515 0.030318 
983 1948557.158515 0.025000 
984 1948557.158515 0.025000 
985 1948557.158515 0.026806 
986 1948557.158515 0.028638 
987 1948557.158515 0.030394 
988 1948557.158515 0.024050 
989 1948557.158515 0.025000 
990 1948557.158515 0.025000 
991 1948557.158515 0.030113 
992 1948557.158515 0.028638 
993 1948557.158515 0.031116 
994 1948557.158515 0.024050 
995 1948557.158515 0.020591 
996 1948557.158515 0.025000 
997 1948557.158515 0.025000 
998 1948557.158515 0.030245 
999 1948557.158515 0.028468 
1000 1948557.158515 0.027164 
1001 1948557.158515 0.032240 
1002 1948557.158515 0.020566 
1003 1948557.158515 0.025000 
1004 1948557.158515 0.025000 
1005 1948557.158515 0.030458 
1006 1948557.158515 0.025000 
1007 1948557.158515 0.025000 
1008 1948557.158515 0.028676 
1009 1948557.158515 0.025000 
1010 1948557.158515 0.025000 
1011 1948557.158515 0.026703 
1012 1948557.158515 0.024890 
1013 1948557.158515 0.026861 
1014 1948557.158515 0.030318 
1015 1948557.158515 0.025000 
1016 1948557.158515 0.025000 
1017 1948557.158515 0.030177 
1018 1948557.158515 0.028638 
1019 1948557.158515 0.031220 
1020 1948557.158515 0.024050 
1021 1948557.158515 0.020597 
1022 1948557.158515 0.025000 
1023 1948557.158515 0.025000 
1024 1948557.158515 0.030113 
1025 1948557.158515 0.028638 
1026 1948557.158515 0.031116 
1027 1948557.158515 0.024050 
1028 1948557.158515 0.020591 
1029 1948557.158515 0.025000 
1030 1948557.158515 0.025000 