LAMMPS DATA FILE 

6237 atoms 
14736 bonds 

6 atom types 
14736 bond types 

-1.800190 1.799810 xlo xhi 
-1.799909 1.800091 ylo yhi 
-0.100000 0.100000 zlo zhi 

Bond Coeffs 

1 9093266.739737 0.024504 
2 9093266.739737 0.024504 
3 9093266.739737 0.026615 
4 9093266.739737 0.023978 
5 9093266.739737 0.025660 
6 9093266.739737 0.024504 
7 9093266.739737 0.024504 
8 9093266.739737 0.026615 
9 9093266.739737 0.023978 
10 9093266.739737 0.025635 
11 9093266.739737 0.024504 
12 9093266.739737 0.024504 
13 9093266.739737 0.026615 
14 9093266.739737 0.023978 
15 9093266.739737 0.025660 
16 9093266.739737 0.024504 
17 9093266.739737 0.024504 
18 9093266.739737 0.026615 
19 9093266.739737 0.023978 
20 9093266.739737 0.025660 
21 9093266.739737 0.024504 
22 9093266.739737 0.024504 
23 9093266.739737 0.026615 
24 9093266.739737 0.023996 
25 9093266.739737 0.025635 
26 9093266.739737 0.024504 
27 9093266.739737 0.024504 
28 9093266.739737 0.026615 
29 9093266.739737 0.023978 
30 9093266.739737 0.025635 
31 9093266.739737 0.024504 
32 9093266.739737 0.024504 
33 9093266.739737 0.026615 
34 9093266.739737 0.023996 
35 9093266.739737 0.025635 
36 9093266.739737 0.024504 
37 9093266.739737 0.024504 
38 9093266.739737 0.026615 
39 9093266.739737 0.023978 
40 9093266.739737 0.025660 
41 9093266.739737 0.024504 
42 9093266.739737 0.024504 
43 9093266.739737 0.026615 
44 9093266.739737 0.023996 
45 9093266.739737 0.025660 
46 9093266.739737 0.021899 
47 9093266.739737 0.021899 
48 9093266.739737 0.026393 
49 9093266.739737 0.026393 
50 9093266.739737 0.024339 
51 9093266.739737 0.027802 
52 9093266.739737 0.028192 
53 9093266.739737 0.021967 
54 9093266.739737 0.021899 
55 9093266.739737 0.021967 
56 9093266.739737 0.026393 
57 9093266.739737 0.024339 
58 9093266.739737 0.027802 
59 9093266.739737 0.028192 
60 9093266.739737 0.021967 
61 9093266.739737 0.026393 
62 9093266.739737 0.024339 
63 9093266.739737 0.021899 
64 9093266.739737 0.026393 
65 9093266.739737 0.021899 
66 9093266.739737 0.021899 
67 9093266.739737 0.026393 
68 9093266.739737 0.026393 
69 9093266.739737 0.021899 
70 9093266.739737 0.021899 
71 9093266.739737 0.026393 
72 9093266.739737 0.024339 
73 9093266.739737 0.021967 
74 9093266.739737 0.024868 
75 9093266.739737 0.024868 
76 9093266.739737 0.027677 
77 9093266.739737 0.028067 
78 9093266.739737 0.024868 
79 9093266.739737 0.024868 
80 9093266.739737 0.027607 
81 9093266.739737 0.028055 
82 9093266.739737 0.024868 
83 9093266.739737 0.024868 
84 9093266.739737 0.027871 
85 9093266.739737 0.028203 
86 9093266.739737 0.024868 
87 9093266.739737 0.024868 
88 9093266.739737 0.027677 
89 9093266.739737 0.028329 
90 9093266.739737 0.024504 
91 9093266.739737 0.025056 
92 9093266.739737 0.021454 
93 9093266.739737 0.024504 
94 9093266.739737 0.024367 
95 9093266.739737 0.021596 
96 9093266.739737 0.024504 
97 9093266.739737 0.028907 
98 9093266.739737 0.022308 
99 9093266.739737 0.024939 
100 9093266.739737 0.024504 
101 9093266.739737 0.018626 
102 9093266.739737 0.017741 
103 9093266.739737 0.024504 
104 9093266.739737 0.028605 
105 9093266.739737 0.022176 
106 9093266.739737 0.026071 
107 9093266.739737 0.024504 
108 9093266.739737 0.024947 
109 9093266.739737 0.023250 
110 9093266.739737 0.024504 
111 9093266.739737 0.025167 
112 9093266.739737 0.018766 
113 9093266.739737 0.024504 
114 9093266.739737 0.026615 
115 9093266.739737 0.023978 
116 9093266.739737 0.025660 
117 9093266.739737 0.024504 
118 9093266.739737 0.025056 
119 9093266.739737 0.021454 
120 9093266.739737 0.024504 
121 9093266.739737 0.024367 
122 9093266.739737 0.021596 
123 9093266.739737 0.024504 
124 9093266.739737 0.028907 
125 9093266.739737 0.022308 
126 9093266.739737 0.024939 
127 9093266.739737 0.024504 
128 9093266.739737 0.018626 
129 9093266.739737 0.017741 
130 9093266.739737 0.024504 
131 9093266.739737 0.028605 
132 9093266.739737 0.022176 
133 9093266.739737 0.026071 
134 9093266.739737 0.024504 
135 9093266.739737 0.024947 
136 9093266.739737 0.023250 
137 9093266.739737 0.024504 
138 9093266.739737 0.025167 
139 9093266.739737 0.018766 
140 9093266.739737 0.024504 
141 9093266.739737 0.026615 
142 9093266.739737 0.023996 
143 9093266.739737 0.025660 
144 9093266.739737 0.024504 
145 9093266.739737 0.025498 
146 9093266.739737 0.021445 
147 9093266.739737 0.024504 
148 9093266.739737 0.023195 
149 9093266.739737 0.024269 
150 9093266.739737 0.024504 
151 9093266.739737 0.028605 
152 9093266.739737 0.023646 
153 9093266.739737 0.026071 
154 9093266.739737 0.024504 
155 9093266.739737 0.018626 
156 9093266.739737 0.017741 
157 9093266.739737 0.024504 
158 9093266.739737 0.028907 
159 9093266.739737 0.022308 
160 9093266.739737 0.024939 
161 9093266.739737 0.024504 
162 9093266.739737 0.024367 
163 9093266.739737 0.021596 
164 9093266.739737 0.024504 
165 9093266.739737 0.025056 
166 9093266.739737 0.021454 
167 9093266.739737 0.024504 
168 9093266.739737 0.026615 
169 9093266.739737 0.023978 
170 9093266.739737 0.025635 
171 9093266.739737 0.024504 
172 9093266.739737 0.024976 
173 9093266.739737 0.018798 
174 9093266.739737 0.024504 
175 9093266.739737 0.025259 
176 9093266.739737 0.021295 
177 9093266.739737 0.024504 
178 9093266.739737 0.028934 
179 9093266.739737 0.022307 
180 9093266.739737 0.025163 
181 9093266.739737 0.024504 
182 9093266.739737 0.018632 
183 9093266.739737 0.017741 
184 9093266.739737 0.024504 
185 9093266.739737 0.028605 
186 9093266.739737 0.022176 
187 9093266.739737 0.026071 
188 9093266.739737 0.024504 
189 9093266.739737 0.024947 
190 9093266.739737 0.023250 
191 9093266.739737 0.025167 
192 9093266.739737 0.018766 
193 9093266.739737 0.024504 
194 9093266.739737 0.024976 
195 9093266.739737 0.018798 
196 9093266.739737 0.024504 
197 9093266.739737 0.025259 
198 9093266.739737 0.021295 
199 9093266.739737 0.024504 
200 9093266.739737 0.028934 
201 9093266.739737 0.022307 
202 9093266.739737 0.025163 
203 9093266.739737 0.024504 
204 9093266.739737 0.018632 
205 9093266.739737 0.017741 
206 9093266.739737 0.024504 
207 9093266.739737 0.028605 
208 9093266.739737 0.023646 
209 9093266.739737 0.026071 
210 9093266.739737 0.024504 
211 9093266.739737 0.023195 
212 9093266.739737 0.024269 
213 9093266.739737 0.024504 
214 9093266.739737 0.025498 
215 9093266.739737 0.021445 
216 9093266.739737 0.024504 
217 9093266.739737 0.026615 
218 9093266.739737 0.023996 
219 9093266.739737 0.025635 
220 9093266.739737 0.024504 
221 9093266.739737 0.024976 
222 9093266.739737 0.018798 
223 9093266.739737 0.024504 
224 9093266.739737 0.025259 
225 9093266.739737 0.021295 
226 9093266.739737 0.024504 
227 9093266.739737 0.028934 
228 9093266.739737 0.022307 
229 9093266.739737 0.025163 
230 9093266.739737 0.024504 
231 9093266.739737 0.018632 
232 9093266.739737 0.017741 
233 9093266.739737 0.024504 
234 9093266.739737 0.028605 
235 9093266.739737 0.022176 
236 9093266.739737 0.026071 
237 9093266.739737 0.024504 
238 9093266.739737 0.024947 
239 9093266.739737 0.023250 
240 9093266.739737 0.024504 
241 9093266.739737 0.025167 
242 9093266.739737 0.018766 
243 9093266.739737 0.024504 
244 9093266.739737 0.026615 
245 9093266.739737 0.023978 
246 9093266.739737 0.025660 
247 9093266.739737 0.024504 
248 9093266.739737 0.025056 
249 9093266.739737 0.021454 
250 9093266.739737 0.024504 
251 9093266.739737 0.024367 
252 9093266.739737 0.021596 
253 9093266.739737 0.024504 
254 9093266.739737 0.028907 
255 9093266.739737 0.022308 
256 9093266.739737 0.024939 
257 9093266.739737 0.024504 
258 9093266.739737 0.018626 
259 9093266.739737 0.017741 
260 9093266.739737 0.024504 
261 9093266.739737 0.028605 
262 9093266.739737 0.022176 
263 9093266.739737 0.026071 
264 9093266.739737 0.024504 
265 9093266.739737 0.024947 
266 9093266.739737 0.023250 
267 9093266.739737 0.024504 
268 9093266.739737 0.025167 
269 9093266.739737 0.018766 
270 9093266.739737 0.024504 
271 9093266.739737 0.026615 
272 9093266.739737 0.023996 
273 9093266.739737 0.025660 
274 9093266.739737 0.024504 
275 9093266.739737 0.025498 
276 9093266.739737 0.021445 
277 9093266.739737 0.024504 
278 9093266.739737 0.023195 
279 9093266.739737 0.024269 
280 9093266.739737 0.024504 
281 9093266.739737 0.028605 
282 9093266.739737 0.023646 
283 9093266.739737 0.026071 
284 9093266.739737 0.024504 
285 9093266.739737 0.018626 
286 9093266.739737 0.017741 
287 9093266.739737 0.024504 
288 9093266.739737 0.028907 
289 9093266.739737 0.022308 
290 9093266.739737 0.024939 
291 9093266.739737 0.024504 
292 9093266.739737 0.024367 
293 9093266.739737 0.021596 
294 9093266.739737 0.025056 
295 9093266.739737 0.021454 
296 9093266.739737 0.024504 
297 9093266.739737 0.025167 
298 9093266.739737 0.018766 
299 9093266.739737 0.024504 
300 9093266.739737 0.024947 
301 9093266.739737 0.023250 
302 9093266.739737 0.024504 
303 9093266.739737 0.028605 
304 9093266.739737 0.022176 
305 9093266.739737 0.026071 
306 9093266.739737 0.024504 
307 9093266.739737 0.018626 
308 9093266.739737 0.017741 
309 9093266.739737 0.024504 
310 9093266.739737 0.028907 
311 9093266.739737 0.022308 
312 9093266.739737 0.024939 
313 9093266.739737 0.024504 
314 9093266.739737 0.024367 
315 9093266.739737 0.021596 
316 9093266.739737 0.024504 
317 9093266.739737 0.025056 
318 9093266.739737 0.021454 
319 9093266.739737 0.024504 
320 9093266.739737 0.026615 
321 9093266.739737 0.023978 
322 9093266.739737 0.025635 
323 9093266.739737 0.024504 
324 9093266.739737 0.024976 
325 9093266.739737 0.018798 
326 9093266.739737 0.024504 
327 9093266.739737 0.025259 
328 9093266.739737 0.021295 
329 9093266.739737 0.024504 
330 9093266.739737 0.028934 
331 9093266.739737 0.022307 
332 9093266.739737 0.025163 
333 9093266.739737 0.024504 
334 9093266.739737 0.018632 
335 9093266.739737 0.017741 
336 9093266.739737 0.024504 
337 9093266.739737 0.028605 
338 9093266.739737 0.022176 
339 9093266.739737 0.026071 
340 9093266.739737 0.024504 
341 9093266.739737 0.024947 
342 9093266.739737 0.023250 
343 9093266.739737 0.024504 
344 9093266.739737 0.025167 
345 9093266.739737 0.018766 
346 9093266.739737 0.024504 
347 9093266.739737 0.026615 
348 9093266.739737 0.023978 
349 9093266.739737 0.025660 
350 9093266.739737 0.024504 
351 9093266.739737 0.025056 
352 9093266.739737 0.021454 
353 9093266.739737 0.024504 
354 9093266.739737 0.024367 
355 9093266.739737 0.021596 
356 9093266.739737 0.024504 
357 9093266.739737 0.028907 
358 9093266.739737 0.022308 
359 9093266.739737 0.024939 
360 9093266.739737 0.024504 
361 9093266.739737 0.018626 
362 9093266.739737 0.017741 
363 9093266.739737 0.024504 
364 9093266.739737 0.028605 
365 9093266.739737 0.022176 
366 9093266.739737 0.026071 
367 9093266.739737 0.024504 
368 9093266.739737 0.024947 
369 9093266.739737 0.023250 
370 9093266.739737 0.024504 
371 9093266.739737 0.025167 
372 9093266.739737 0.018766 
373 9093266.739737 0.024504 
374 9093266.739737 0.026615 
375 9093266.739737 0.023996 
376 9093266.739737 0.025660 
377 9093266.739737 0.024504 
378 9093266.739737 0.025498 
379 9093266.739737 0.021445 
380 9093266.739737 0.024504 
381 9093266.739737 0.023195 
382 9093266.739737 0.024269 
383 9093266.739737 0.024504 
384 9093266.739737 0.028605 
385 9093266.739737 0.023646 
386 9093266.739737 0.026071 
387 9093266.739737 0.024504 
388 9093266.739737 0.018626 
389 9093266.739737 0.017741 
390 9093266.739737 0.024504 
391 9093266.739737 0.028907 
392 9093266.739737 0.022308 
393 9093266.739737 0.024939 
394 9093266.739737 0.024504 
395 9093266.739737 0.024367 
396 9093266.739737 0.021596 
397 9093266.739737 0.025056 
398 9093266.739737 0.021454 
399 9093266.739737 0.024504 
400 9093266.739737 0.025167 
401 9093266.739737 0.018766 
402 9093266.739737 0.024504 
403 9093266.739737 0.024947 
404 9093266.739737 0.023250 
405 9093266.739737 0.024504 
406 9093266.739737 0.028605 
407 9093266.739737 0.022176 
408 9093266.739737 0.026071 
409 9093266.739737 0.024504 
410 9093266.739737 0.018632 
411 9093266.739737 0.017741 
412 9093266.739737 0.024504 
413 9093266.739737 0.028934 
414 9093266.739737 0.022307 
415 9093266.739737 0.025163 
416 9093266.739737 0.024504 
417 9093266.739737 0.025259 
418 9093266.739737 0.021295 
419 9093266.739737 0.024504 
420 9093266.739737 0.024976 
421 9093266.739737 0.018798 
422 9093266.739737 0.024504 
423 9093266.739737 0.026615 
424 9093266.739737 0.023996 
425 9093266.739737 0.025635 
426 9093266.739737 0.024504 
427 9093266.739737 0.025498 
428 9093266.739737 0.021445 
429 9093266.739737 0.024504 
430 9093266.739737 0.023195 
431 9093266.739737 0.024269 
432 9093266.739737 0.024504 
433 9093266.739737 0.028605 
434 9093266.739737 0.023646 
435 9093266.739737 0.026071 
436 9093266.739737 0.024504 
437 9093266.739737 0.018632 
438 9093266.739737 0.017741 
439 9093266.739737 0.024504 
440 9093266.739737 0.028934 
441 9093266.739737 0.022307 
442 9093266.739737 0.025163 
443 9093266.739737 0.024504 
444 9093266.739737 0.025259 
445 9093266.739737 0.021295 
446 9093266.739737 0.024504 
447 9093266.739737 0.024976 
448 9093266.739737 0.018798 
449 9093266.739737 0.024504 
450 9093266.739737 0.026615 
451 9093266.739737 0.023978 
452 9093266.739737 0.025635 
453 9093266.739737 0.024504 
454 9093266.739737 0.025056 
455 9093266.739737 0.021454 
456 9093266.739737 0.024504 
457 9093266.739737 0.024367 
458 9093266.739737 0.021596 
459 9093266.739737 0.024504 
460 9093266.739737 0.028907 
461 9093266.739737 0.022308 
462 9093266.739737 0.024939 
463 9093266.739737 0.024504 
464 9093266.739737 0.018626 
465 9093266.739737 0.017741 
466 9093266.739737 0.024504 
467 9093266.739737 0.028605 
468 9093266.739737 0.023646 
469 9093266.739737 0.026071 
470 9093266.739737 0.024504 
471 9093266.739737 0.023195 
472 9093266.739737 0.024269 
473 9093266.739737 0.024504 
474 9093266.739737 0.025498 
475 9093266.739737 0.021445 
476 9093266.739737 0.024504 
477 9093266.739737 0.026615 
478 9093266.739737 0.023996 
479 9093266.739737 0.025660 
480 9093266.739737 0.024504 
481 9093266.739737 0.025167 
482 9093266.739737 0.018766 
483 9093266.739737 0.024504 
484 9093266.739737 0.024947 
485 9093266.739737 0.023250 
486 9093266.739737 0.024504 
487 9093266.739737 0.028605 
488 9093266.739737 0.022176 
489 9093266.739737 0.026071 
490 9093266.739737 0.024504 
491 9093266.739737 0.018626 
492 9093266.739737 0.017741 
493 9093266.739737 0.024504 
494 9093266.739737 0.028907 
495 9093266.739737 0.022308 
496 9093266.739737 0.024939 
497 9093266.739737 0.024504 
498 9093266.739737 0.024367 
499 9093266.739737 0.021596 
500 9093266.739737 0.025056 
501 9093266.739737 0.021454 
502 9093266.739737 0.024504 
503 9093266.739737 0.025498 
504 9093266.739737 0.021445 
505 9093266.739737 0.024504 
506 9093266.739737 0.023195 
507 9093266.739737 0.024269 
508 9093266.739737 0.024504 
509 9093266.739737 0.028605 
510 9093266.739737 0.023646 
511 9093266.739737 0.026071 
512 9093266.739737 0.024504 
513 9093266.739737 0.018626 
514 9093266.739737 0.017741 
515 9093266.739737 0.024504 
516 9093266.739737 0.028907 
517 9093266.739737 0.022308 
518 9093266.739737 0.024939 
519 9093266.739737 0.024504 
520 9093266.739737 0.024367 
521 9093266.739737 0.021596 
522 9093266.739737 0.024504 
523 9093266.739737 0.025056 
524 9093266.739737 0.021454 
525 9093266.739737 0.024504 
526 9093266.739737 0.026615 
527 9093266.739737 0.023978 
528 9093266.739737 0.025660 
529 9093266.739737 0.024504 
530 9093266.739737 0.025167 
531 9093266.739737 0.018766 
532 9093266.739737 0.024504 
533 9093266.739737 0.024947 
534 9093266.739737 0.023250 
535 9093266.739737 0.024504 
536 9093266.739737 0.028605 
537 9093266.739737 0.022176 
538 9093266.739737 0.026071 
539 9093266.739737 0.024504 
540 9093266.739737 0.018632 
541 9093266.739737 0.017741 
542 9093266.739737 0.024504 
543 9093266.739737 0.028934 
544 9093266.739737 0.022307 
545 9093266.739737 0.025163 
546 9093266.739737 0.024504 
547 9093266.739737 0.025259 
548 9093266.739737 0.021295 
549 9093266.739737 0.024504 
550 9093266.739737 0.024976 
551 9093266.739737 0.018798 
552 9093266.739737 0.024504 
553 9093266.739737 0.026615 
554 9093266.739737 0.023996 
555 9093266.739737 0.025635 
556 9093266.739737 0.024504 
557 9093266.739737 0.025498 
558 9093266.739737 0.021445 
559 9093266.739737 0.024504 
560 9093266.739737 0.023195 
561 9093266.739737 0.024269 
562 9093266.739737 0.024504 
563 9093266.739737 0.028605 
564 9093266.739737 0.023646 
565 9093266.739737 0.026071 
566 9093266.739737 0.024504 
567 9093266.739737 0.018632 
568 9093266.739737 0.017741 
569 9093266.739737 0.024504 
570 9093266.739737 0.028934 
571 9093266.739737 0.022307 
572 9093266.739737 0.025163 
573 9093266.739737 0.024504 
574 9093266.739737 0.025259 
575 9093266.739737 0.021295 
576 9093266.739737 0.024504 
577 9093266.739737 0.024976 
578 9093266.739737 0.018798 
579 9093266.739737 0.024504 
580 9093266.739737 0.026615 
581 9093266.739737 0.023996 
582 9093266.739737 0.025635 
583 9093266.739737 0.024504 
584 9093266.739737 0.025498 
585 9093266.739737 0.021445 
586 9093266.739737 0.024504 
587 9093266.739737 0.023195 
588 9093266.739737 0.024269 
589 9093266.739737 0.024504 
590 9093266.739737 0.028605 
591 9093266.739737 0.023646 
592 9093266.739737 0.026071 
593 9093266.739737 0.024504 
594 9093266.739737 0.018632 
595 9093266.739737 0.017741 
596 9093266.739737 0.024504 
597 9093266.739737 0.028934 
598 9093266.739737 0.022307 
599 9093266.739737 0.025163 
600 9093266.739737 0.024504 
601 9093266.739737 0.025259 
602 9093266.739737 0.021295 
603 9093266.739737 0.024976 
604 9093266.739737 0.018798 
605 9093266.739737 0.024504 
606 9093266.739737 0.024976 
607 9093266.739737 0.018798 
608 9093266.739737 0.024504 
609 9093266.739737 0.025259 
610 9093266.739737 0.021295 
611 9093266.739737 0.024504 
612 9093266.739737 0.028934 
613 9093266.739737 0.022307 
614 9093266.739737 0.025163 
615 9093266.739737 0.024504 
616 9093266.739737 0.018632 
617 9093266.739737 0.017741 
618 9093266.739737 0.024504 
619 9093266.739737 0.028605 
620 9093266.739737 0.022176 
621 9093266.739737 0.026071 
622 9093266.739737 0.024504 
623 9093266.739737 0.024947 
624 9093266.739737 0.023250 
625 9093266.739737 0.024504 
626 9093266.739737 0.025167 
627 9093266.739737 0.018766 
628 9093266.739737 0.024504 
629 9093266.739737 0.026615 
630 9093266.739737 0.023978 
631 9093266.739737 0.025660 
632 9093266.739737 0.024504 
633 9093266.739737 0.025056 
634 9093266.739737 0.021454 
635 9093266.739737 0.024504 
636 9093266.739737 0.024367 
637 9093266.739737 0.021596 
638 9093266.739737 0.024504 
639 9093266.739737 0.028907 
640 9093266.739737 0.022308 
641 9093266.739737 0.024939 
642 9093266.739737 0.024504 
643 9093266.739737 0.018626 
644 9093266.739737 0.017741 
645 9093266.739737 0.024504 
646 9093266.739737 0.028605 
647 9093266.739737 0.022176 
648 9093266.739737 0.026071 
649 9093266.739737 0.024504 
650 9093266.739737 0.024947 
651 9093266.739737 0.023250 
652 9093266.739737 0.024504 
653 9093266.739737 0.025167 
654 9093266.739737 0.018766 
655 9093266.739737 0.024504 
656 9093266.739737 0.026615 
657 9093266.739737 0.023978 
658 9093266.739737 0.025660 
659 9093266.739737 0.024504 
660 9093266.739737 0.025056 
661 9093266.739737 0.021454 
662 9093266.739737 0.024504 
663 9093266.739737 0.024367 
664 9093266.739737 0.021596 
665 9093266.739737 0.024504 
666 9093266.739737 0.028907 
667 9093266.739737 0.022308 
668 9093266.739737 0.024939 
669 9093266.739737 0.024504 
670 9093266.739737 0.018626 
671 9093266.739737 0.017741 
672 9093266.739737 0.024504 
673 9093266.739737 0.028605 
674 9093266.739737 0.022176 
675 9093266.739737 0.026071 
676 9093266.739737 0.024504 
677 9093266.739737 0.024947 
678 9093266.739737 0.023250 
679 9093266.739737 0.024504 
680 9093266.739737 0.025167 
681 9093266.739737 0.018766 
682 9093266.739737 0.024504 
683 9093266.739737 0.026615 
684 9093266.739737 0.023996 
685 9093266.739737 0.025660 
686 9093266.739737 0.024504 
687 9093266.739737 0.025498 
688 9093266.739737 0.021445 
689 9093266.739737 0.024504 
690 9093266.739737 0.023195 
691 9093266.739737 0.024269 
692 9093266.739737 0.024504 
693 9093266.739737 0.028605 
694 9093266.739737 0.023646 
695 9093266.739737 0.026071 
696 9093266.739737 0.024504 
697 9093266.739737 0.018626 
698 9093266.739737 0.017741 
699 9093266.739737 0.024504 
700 9093266.739737 0.028907 
701 9093266.739737 0.022308 
702 9093266.739737 0.024939 
703 9093266.739737 0.024504 
704 9093266.739737 0.024367 
705 9093266.739737 0.021596 
706 9093266.739737 0.025056 
707 9093266.739737 0.021454 
708 9093266.739737 0.024504 
709 9093266.739737 0.025498 
710 9093266.739737 0.021445 
711 9093266.739737 0.024504 
712 9093266.739737 0.023195 
713 9093266.739737 0.024269 
714 9093266.739737 0.024504 
715 9093266.739737 0.028605 
716 9093266.739737 0.023646 
717 9093266.739737 0.026071 
718 9093266.739737 0.024504 
719 9093266.739737 0.018632 
720 9093266.739737 0.017741 
721 9093266.739737 0.024504 
722 9093266.739737 0.028934 
723 9093266.739737 0.022307 
724 9093266.739737 0.025163 
725 9093266.739737 0.024504 
726 9093266.739737 0.025259 
727 9093266.739737 0.021295 
728 9093266.739737 0.024504 
729 9093266.739737 0.024976 
730 9093266.739737 0.018798 
731 9093266.739737 0.024504 
732 9093266.739737 0.026615 
733 9093266.739737 0.023996 
734 9093266.739737 0.025635 
735 9093266.739737 0.024504 
736 9093266.739737 0.025498 
737 9093266.739737 0.021445 
738 9093266.739737 0.024504 
739 9093266.739737 0.023195 
740 9093266.739737 0.024269 
741 9093266.739737 0.024504 
742 9093266.739737 0.028605 
743 9093266.739737 0.023646 
744 9093266.739737 0.026071 
745 9093266.739737 0.024504 
746 9093266.739737 0.018632 
747 9093266.739737 0.017741 
748 9093266.739737 0.024504 
749 9093266.739737 0.028934 
750 9093266.739737 0.022307 
751 9093266.739737 0.025163 
752 9093266.739737 0.024504 
753 9093266.739737 0.025259 
754 9093266.739737 0.021295 
755 9093266.739737 0.024504 
756 9093266.739737 0.024976 
757 9093266.739737 0.018798 
758 9093266.739737 0.024504 
759 9093266.739737 0.026615 
760 9093266.739737 0.023978 
761 9093266.739737 0.025635 
762 9093266.739737 0.024504 
763 9093266.739737 0.025056 
764 9093266.739737 0.021454 
765 9093266.739737 0.024504 
766 9093266.739737 0.024367 
767 9093266.739737 0.021596 
768 9093266.739737 0.024504 
769 9093266.739737 0.028907 
770 9093266.739737 0.022308 
771 9093266.739737 0.024939 
772 9093266.739737 0.024504 
773 9093266.739737 0.018626 
774 9093266.739737 0.017741 
775 9093266.739737 0.024504 
776 9093266.739737 0.028605 
777 9093266.739737 0.023646 
778 9093266.739737 0.026071 
779 9093266.739737 0.024504 
780 9093266.739737 0.023195 
781 9093266.739737 0.024269 
782 9093266.739737 0.024504 
783 9093266.739737 0.025498 
784 9093266.739737 0.021445 
785 9093266.739737 0.024504 
786 9093266.739737 0.026615 
787 9093266.739737 0.023996 
788 9093266.739737 0.025660 
789 9093266.739737 0.024504 
790 9093266.739737 0.025167 
791 9093266.739737 0.018766 
792 9093266.739737 0.024504 
793 9093266.739737 0.024947 
794 9093266.739737 0.023250 
795 9093266.739737 0.024504 
796 9093266.739737 0.028605 
797 9093266.739737 0.022176 
798 9093266.739737 0.026071 
799 9093266.739737 0.024504 
800 9093266.739737 0.018632 
801 9093266.739737 0.017741 
802 9093266.739737 0.024504 
803 9093266.739737 0.028934 
804 9093266.739737 0.022307 
805 9093266.739737 0.025163 
806 9093266.739737 0.024504 
807 9093266.739737 0.025259 
808 9093266.739737 0.021295 
809 9093266.739737 0.024976 
810 9093266.739737 0.018798 
811 9093266.739737 0.024504 
812 9093266.739737 0.025056 
813 9093266.739737 0.021454 
814 9093266.739737 0.024504 
815 9093266.739737 0.024367 
816 9093266.739737 0.021596 
817 9093266.739737 0.024504 
818 9093266.739737 0.028907 
819 9093266.739737 0.022308 
820 9093266.739737 0.024939 
821 9093266.739737 0.024504 
822 9093266.739737 0.018626 
823 9093266.739737 0.017741 
824 9093266.739737 0.024504 
825 9093266.739737 0.028605 
826 9093266.739737 0.022176 
827 9093266.739737 0.026071 
828 9093266.739737 0.024504 
829 9093266.739737 0.024947 
830 9093266.739737 0.023250 
831 9093266.739737 0.024504 
832 9093266.739737 0.025167 
833 9093266.739737 0.018766 
834 9093266.739737 0.024504 
835 9093266.739737 0.026615 
836 9093266.739737 0.023978 
837 9093266.739737 0.025660 
838 9093266.739737 0.024504 
839 9093266.739737 0.025056 
840 9093266.739737 0.021454 
841 9093266.739737 0.024504 
842 9093266.739737 0.024367 
843 9093266.739737 0.021596 
844 9093266.739737 0.024504 
845 9093266.739737 0.028907 
846 9093266.739737 0.022308 
847 9093266.739737 0.024939 
848 9093266.739737 0.024504 
849 9093266.739737 0.018626 
850 9093266.739737 0.017741 
851 9093266.739737 0.024504 
852 9093266.739737 0.028605 
853 9093266.739737 0.022176 
854 9093266.739737 0.026071 
855 9093266.739737 0.024504 
856 9093266.739737 0.024947 
857 9093266.739737 0.023250 
858 9093266.739737 0.024504 
859 9093266.739737 0.025167 
860 9093266.739737 0.018766 
861 9093266.739737 0.024504 
862 9093266.739737 0.026615 
863 9093266.739737 0.023978 
864 9093266.739737 0.025660 
865 9093266.739737 0.024504 
866 9093266.739737 0.025056 
867 9093266.739737 0.021454 
868 9093266.739737 0.024504 
869 9093266.739737 0.024367 
870 9093266.739737 0.021596 
871 9093266.739737 0.024504 
872 9093266.739737 0.028907 
873 9093266.739737 0.022308 
874 9093266.739737 0.024939 
875 9093266.739737 0.024504 
876 9093266.739737 0.018626 
877 9093266.739737 0.017741 
878 9093266.739737 0.024504 
879 9093266.739737 0.028605 
880 9093266.739737 0.022176 
881 9093266.739737 0.026071 
882 9093266.739737 0.024504 
883 9093266.739737 0.024947 
884 9093266.739737 0.023250 
885 9093266.739737 0.024504 
886 9093266.739737 0.025167 
887 9093266.739737 0.018766 
888 9093266.739737 0.024504 
889 9093266.739737 0.026615 
890 9093266.739737 0.023978 
891 9093266.739737 0.025660 
892 9093266.739737 0.024504 
893 9093266.739737 0.025056 
894 9093266.739737 0.021454 
895 9093266.739737 0.024504 
896 9093266.739737 0.024367 
897 9093266.739737 0.021596 
898 9093266.739737 0.024504 
899 9093266.739737 0.028907 
900 9093266.739737 0.022308 
901 9093266.739737 0.024939 
902 9093266.739737 0.024504 
903 9093266.739737 0.018626 
904 9093266.739737 0.017741 
905 9093266.739737 0.024504 
906 9093266.739737 0.028605 
907 9093266.739737 0.022176 
908 9093266.739737 0.026071 
909 9093266.739737 0.024504 
910 9093266.739737 0.024947 
911 9093266.739737 0.023250 
912 9093266.739737 0.025167 
913 9093266.739737 0.018766 
914 9093266.739737 0.024504 
915 9093266.739737 0.025498 
916 9093266.739737 0.021445 
917 9093266.739737 0.024504 
918 9093266.739737 0.023195 
919 9093266.739737 0.024269 
920 9093266.739737 0.024504 
921 9093266.739737 0.028605 
922 9093266.739737 0.023646 
923 9093266.739737 0.026071 
924 9093266.739737 0.024504 
925 9093266.739737 0.018626 
926 9093266.739737 0.017741 
927 9093266.739737 0.024504 
928 9093266.739737 0.028907 
929 9093266.739737 0.022308 
930 9093266.739737 0.024939 
931 9093266.739737 0.024504 
932 9093266.739737 0.024367 
933 9093266.739737 0.021596 
934 9093266.739737 0.024504 
935 9093266.739737 0.025056 
936 9093266.739737 0.021454 
937 9093266.739737 0.024504 
938 9093266.739737 0.026615 
939 9093266.739737 0.023978 
940 9093266.739737 0.025660 
941 9093266.739737 0.024504 
942 9093266.739737 0.025167 
943 9093266.739737 0.018766 
944 9093266.739737 0.024504 
945 9093266.739737 0.024947 
946 9093266.739737 0.023250 
947 9093266.739737 0.024504 
948 9093266.739737 0.028605 
949 9093266.739737 0.022176 
950 9093266.739737 0.026071 
951 9093266.739737 0.024504 
952 9093266.739737 0.018632 
953 9093266.739737 0.017741 
954 9093266.739737 0.024504 
955 9093266.739737 0.028934 
956 9093266.739737 0.022307 
957 9093266.739737 0.025163 
958 9093266.739737 0.024504 
959 9093266.739737 0.025259 
960 9093266.739737 0.021295 
961 9093266.739737 0.024504 
962 9093266.739737 0.024976 
963 9093266.739737 0.018798 
964 9093266.739737 0.024504 
965 9093266.739737 0.026615 
966 9093266.739737 0.023996 
967 9093266.739737 0.025635 
968 9093266.739737 0.024504 
969 9093266.739737 0.025498 
970 9093266.739737 0.021445 
971 9093266.739737 0.024504 
972 9093266.739737 0.023195 
973 9093266.739737 0.024269 
974 9093266.739737 0.024504 
975 9093266.739737 0.028605 
976 9093266.739737 0.023646 
977 9093266.739737 0.026071 
978 9093266.739737 0.024504 
979 9093266.739737 0.018632 
980 9093266.739737 0.017741 
981 9093266.739737 0.024504 
982 9093266.739737 0.028934 
983 9093266.739737 0.022307 
984 9093266.739737 0.025163 
985 9093266.739737 0.024504 
986 9093266.739737 0.025259 
987 9093266.739737 0.021295 
988 9093266.739737 0.024504 
989 9093266.739737 0.024976 
990 9093266.739737 0.018798 
991 9093266.739737 0.024504 
992 9093266.739737 0.026615 
993 9093266.739737 0.023978 
994 9093266.739737 0.025635 
995 9093266.739737 0.024504 
996 9093266.739737 0.025056 
997 9093266.739737 0.021454 
998 9093266.739737 0.024504 
999 9093266.739737 0.024367 
1000 9093266.739737 0.021596 
1001 9093266.739737 0.024504 
1002 9093266.739737 0.028907 
1003 9093266.739737 0.022308 
1004 9093266.739737 0.024939 
1005 9093266.739737 0.024504 
1006 9093266.739737 0.018626 
1007 9093266.739737 0.017741 
1008 9093266.739737 0.024504 
1009 9093266.739737 0.028605 
1010 9093266.739737 0.022176 
1011 9093266.739737 0.026071 
1012 9093266.739737 0.024504 
1013 9093266.739737 0.024947 
1014 9093266.739737 0.023250 
1015 9093266.739737 0.025167 
1016 9093266.739737 0.018766 
1017 9093266.739737 0.027857 
1018 9093266.739737 0.018310 
1019 9093266.739737 0.028346 
1020 9093266.739737 0.020683 
1021 9093266.739737 0.031523 
1022 9093266.739737 0.032482 
1023 9093266.739737 0.023066 
1024 9093266.739737 0.021972 
1025 9093266.739737 0.023955 
1026 9093266.739737 0.027722 
1027 9093266.739737 0.019790 
1028 9093266.739737 0.030375 
1029 9093266.739737 0.023992 
1030 9093266.739737 0.029082 
1031 9093266.739737 0.018863 