LAMMPS DATA FILE 

14996 atoms 
36921 bonds 

5 atom types 
36921 bond types 

-3.691204 3.688796 xlo xhi 
-3.693512 3.686488 ylo yhi 
-0.008306 0.008306 zlo zhi 

Bond Coeffs # harmonic 

1 1.94856e+06 0.025000 
2 1.94856e+06 0.025000 
3 1.94856e+06 0.025000 
4 1.94856e+06 0.025000 
5 1.94856e+06 0.027243 
6 1.94856e+06 0.021814 
7 1.94856e+06 0.025000 
8 1.94856e+06 0.025000 
9 1.94856e+06 0.024296 
10 1.94856e+06 0.025004 
11 1.94856e+06 0.028889 
12 1.94856e+06 0.021982 
13 1.94856e+06 0.025000 
14 1.94856e+06 0.025000 
15 1.94856e+06 0.022419 
16 1.94856e+06 0.024459 
17 1.94856e+06 0.028965 
18 1.94856e+06 0.023800 
19 1.94856e+06 0.025000 
20 1.94856e+06 0.025000 
21 1.94856e+06 0.025000 
22 1.94856e+06 0.025000 
23 1.94856e+06 0.024918 
24 1.94856e+06 0.033476 
25 1.94856e+06 0.025000 
26 1.94856e+06 0.025000 
27 1.94856e+06 0.025000 
28 1.94856e+06 0.025000 
29 1.94856e+06 0.023924 
30 1.94856e+06 0.021555 
31 1.94856e+06 0.025000 
32 1.94856e+06 0.025000 
33 1.94856e+06 0.024918 
34 1.94856e+06 0.025000 
35 1.94856e+06 0.025000 
36 1.94856e+06 0.033476 
37 1.94856e+06 0.025000 
38 1.94856e+06 0.025000 
39 1.94856e+06 0.024296 
40 1.94856e+06 0.025004 
41 1.94856e+06 0.028889 
42 1.94856e+06 0.023807 
43 1.94856e+06 0.025000 
44 1.94856e+06 0.025000 
45 1.94856e+06 0.025000 
46 1.94856e+06 0.025000 
47 1.94856e+06 0.024918 
48 1.94856e+06 0.033476 
49 1.94856e+06 0.025000 
50 1.94856e+06 0.025000 
51 1.94856e+06 0.025000 
52 1.94856e+06 0.025000 
53 1.94856e+06 0.027241 
54 1.94856e+06 0.021286 
55 1.94856e+06 0.025000 
56 1.94856e+06 0.025000 
57 1.94856e+06 0.024158 
58 1.94856e+06 0.025000 
59 1.94856e+06 0.027243 
60 1.94856e+06 0.021817 
61 1.94856e+06 0.025000 
62 1.94856e+06 0.025000 
63 1.94856e+06 0.024296 
64 1.94856e+06 0.025004 
65 1.94856e+06 0.028889 
66 1.94856e+06 0.023807 
67 1.94856e+06 0.025000 
68 1.94856e+06 0.025000 
69 1.94856e+06 0.025000 
70 1.94856e+06 0.025000 
71 1.94856e+06 0.024133 
72 1.94856e+06 0.033501 
73 1.94856e+06 0.025000 
74 1.94856e+06 0.025000 
75 1.94856e+06 0.025000 
76 1.94856e+06 0.025000 
77 1.94856e+06 0.023924 
78 1.94856e+06 0.021555 
79 1.94856e+06 0.025000 
80 1.94856e+06 0.025000 
81 1.94856e+06 0.024158 
82 1.94856e+06 0.025000 
83 1.94856e+06 0.027243 
84 1.94856e+06 0.021817 
85 1.94856e+06 0.025000 
86 1.94856e+06 0.025000 
87 1.94856e+06 0.024296 
88 1.94856e+06 0.025004 
89 1.94856e+06 0.028889 
90 1.94856e+06 0.023605 
91 1.94856e+06 0.025000 
92 1.94856e+06 0.025000 
93 1.94856e+06 0.025000 
94 1.94856e+06 0.025000 
95 1.94856e+06 0.024918 
96 1.94856e+06 0.033476 
97 1.94856e+06 0.025000 
98 1.94856e+06 0.025000 
99 1.94856e+06 0.025000 
100 1.94856e+06 0.025000 
101 1.94856e+06 0.027241 
102 1.94856e+06 0.021286 
103 1.94856e+06 0.025000 
104 1.94856e+06 0.025000 
105 1.94856e+06 0.024158 
106 1.94856e+06 0.025000 
107 1.94856e+06 0.027243 
108 1.94856e+06 0.021817 
109 1.94856e+06 0.025000 
110 1.94856e+06 0.025000 
111 1.94856e+06 0.024158 
112 1.94856e+06 0.024864 
113 1.94856e+06 0.028871 
114 1.94856e+06 0.021982 
115 1.94856e+06 0.025000 
116 1.94856e+06 0.025000 
117 1.94856e+06 0.025000 
118 1.94856e+06 0.025000 
119 1.94856e+06 0.024133 
120 1.94856e+06 0.033501 
121 1.94856e+06 0.025000 
122 1.94856e+06 0.025000 
123 1.94856e+06 0.025000 
124 1.94856e+06 0.025000 
125 1.94856e+06 0.024918 
126 1.94856e+06 0.033476 
127 1.94856e+06 0.025000 
128 1.94856e+06 0.025000 
129 1.94856e+06 0.024296 
130 1.94856e+06 0.025004 
131 1.94856e+06 0.028889 
132 1.94856e+06 0.023605 
133 1.94856e+06 0.025000 
134 1.94856e+06 0.025000 
135 1.94856e+06 0.025000 
136 1.94856e+06 0.025000 
137 1.94856e+06 0.024133 
138 1.94856e+06 0.033501 
139 1.94856e+06 0.025000 
140 1.94856e+06 0.025000 
141 1.94856e+06 0.023167 
142 1.94856e+06 0.025000 
143 1.94856e+06 0.024918 
144 1.94856e+06 0.033473 
145 1.94856e+06 0.025000 
146 1.94856e+06 0.025000 
147 1.94856e+06 0.025000 
148 1.94856e+06 0.025000 
149 1.94856e+06 0.024918 
150 1.94856e+06 0.033476 
151 1.94856e+06 0.025000 
152 1.94856e+06 0.025000 
153 1.94856e+06 0.025000 
154 1.94856e+06 0.026203 
155 1.94856e+06 0.027243 
156 1.94856e+06 0.021286 
157 1.94856e+06 0.025000 
158 1.94856e+06 0.025000 
159 1.94856e+06 0.024158 
160 1.94856e+06 0.025000 
161 1.94856e+06 0.027243 
162 1.94856e+06 0.021817 
163 1.94856e+06 0.025000 
164 1.94856e+06 0.025000 
165 1.94856e+06 0.022419 
166 1.94856e+06 0.025000 
167 1.94856e+06 0.024918 
168 1.94856e+06 0.033473 
169 1.94856e+06 0.025000 
170 1.94856e+06 0.025000 
171 1.94856e+06 0.025000 
172 1.94856e+06 0.025000 
173 1.94856e+06 0.027241 
174 1.94856e+06 0.021286 
175 1.94856e+06 0.025000 
176 1.94856e+06 0.025000 
177 1.94856e+06 0.025000 
178 1.94856e+06 0.025146 
179 1.94856e+06 0.022911 
180 1.94856e+06 0.019398 
181 1.94856e+06 0.025000 
182 1.94856e+06 0.025000 
183 1.94856e+06 0.025000 
184 1.94856e+06 0.025000 
185 1.94856e+06 0.024918 
186 1.94856e+06 0.033476 
187 1.94856e+06 0.025000 
188 1.94856e+06 0.025000 
189 1.94856e+06 0.024383 
190 1.94856e+06 0.025000 
191 1.94856e+06 0.024918 
192 1.94856e+06 0.033473 
193 1.94856e+06 0.025000 
194 1.94856e+06 0.025000 
195 1.94856e+06 0.024383 
196 1.94856e+06 0.025000 
197 1.94856e+06 0.024918 
198 1.94856e+06 0.033476 
199 1.94856e+06 0.025000 
200 1.94856e+06 0.025000 
201 1.94856e+06 0.022419 
202 1.94856e+06 0.024459 
203 1.94856e+06 0.028965 
204 1.94856e+06 0.023597 
205 1.94856e+06 0.025000 
206 1.94856e+06 0.025000 
207 1.94856e+06 0.024296 
208 1.94856e+06 0.025004 
209 1.94856e+06 0.028889 
210 1.94856e+06 0.021982 
211 1.94856e+06 0.025000 
212 1.94856e+06 0.025000 
213 1.94856e+06 0.022419 
214 1.94856e+06 0.025000 
215 1.94856e+06 0.027243 
216 1.94856e+06 0.021814 
217 1.94856e+06 0.025000 
218 1.94856e+06 0.025000 
219 1.94856e+06 0.024296 
220 1.94856e+06 0.025136 
221 1.94856e+06 0.022911 
222 1.94856e+06 0.019066 
223 1.94856e+06 0.025000 
224 1.94856e+06 0.025000 
225 1.94856e+06 0.025000 
226 1.94856e+06 0.025000 
227 1.94856e+06 0.024275 
228 1.94856e+06 0.034483 
229 1.94856e+06 0.025000 
230 1.94856e+06 0.025000 
231 1.94856e+06 0.025000 
232 1.94856e+06 0.025000 
233 1.94856e+06 0.024918 
234 1.94856e+06 0.033473 
235 1.94856e+06 0.025000 
236 1.94856e+06 0.025000 
237 1.94856e+06 0.024158 
238 1.94856e+06 0.025000 
239 1.94856e+06 0.023924 
240 1.94856e+06 0.021286 
241 1.94856e+06 0.025000 
242 1.94856e+06 0.025000 
243 1.94856e+06 0.024296 
244 1.94856e+06 0.025136 
245 1.94856e+06 0.022911 
246 1.94856e+06 0.019075 
247 1.94856e+06 0.025000 
248 1.94856e+06 0.025000 
249 1.94856e+06 0.025000 
250 1.94856e+06 0.025000 
251 1.94856e+06 0.024918 
252 1.94856e+06 0.033495 
253 1.94856e+06 0.025000 
254 1.94856e+06 0.025000 
255 1.94856e+06 0.024158 
256 1.94856e+06 0.025000 
257 1.94856e+06 0.027241 
258 1.94856e+06 0.021286 
259 1.94856e+06 0.025000 
260 1.94856e+06 0.025000 
261 1.94856e+06 0.022419 
262 1.94856e+06 0.025000 
263 1.94856e+06 0.027241 
264 1.94856e+06 0.021286 
265 1.94856e+06 0.025000 
266 1.94856e+06 0.025000 
267 1.94856e+06 0.024158 
268 1.94856e+06 0.024999 
269 1.94856e+06 0.022911 
270 1.94856e+06 0.019054 
271 1.94856e+06 0.025000 
272 1.94856e+06 0.025000 
273 1.94856e+06 0.025000 
274 1.94856e+06 0.025146 
275 1.94856e+06 0.022911 
276 1.94856e+06 0.019398 
277 1.94856e+06 0.025000 
278 1.94856e+06 0.025000 
279 1.94856e+06 0.024296 
280 1.94856e+06 0.025136 
281 1.94856e+06 0.022911 
282 1.94856e+06 0.019410 
283 1.94856e+06 0.025000 
284 1.94856e+06 0.025000 
285 1.94856e+06 0.024158 
286 1.94856e+06 0.025000 
287 1.94856e+06 0.027241 
288 1.94856e+06 0.021286 
289 1.94856e+06 0.025000 
290 1.94856e+06 0.025000 
291 1.94856e+06 0.024158 
292 1.94856e+06 0.024999 
293 1.94856e+06 0.022911 
294 1.94856e+06 0.019054 
295 1.94856e+06 0.025000 
296 1.94856e+06 0.025000 
297 1.94856e+06 0.025000 
298 1.94856e+06 0.025146 
299 1.94856e+06 0.022911 
300 1.94856e+06 0.019398 
301 1.94856e+06 0.025000 
302 1.94856e+06 0.025000 
303 1.94856e+06 0.025000 
304 1.94856e+06 0.025000 
305 1.94856e+06 0.024918 
306 1.94856e+06 0.033476 
307 1.94856e+06 0.025000 
308 1.94856e+06 0.025000 
309 1.94856e+06 0.025013 
310 1.94856e+06 0.026028 
311 1.94856e+06 0.023924 
312 1.94856e+06 0.021692 
313 1.94856e+06 0.025000 
314 1.94856e+06 0.025000 
315 1.94856e+06 0.022419 
316 1.94856e+06 0.025000 
317 1.94856e+06 0.024918 
318 1.94856e+06 0.033476 
319 1.94856e+06 0.025000 
320 1.94856e+06 0.025000 
321 1.94856e+06 0.024296 
322 1.94856e+06 0.025136 
323 1.94856e+06 0.022911 
324 1.94856e+06 0.019070 
325 1.94856e+06 0.025000 
326 1.94856e+06 0.025000 
327 1.94856e+06 0.025000 
328 1.94856e+06 0.025000 
329 1.94856e+06 0.029005 
330 1.94856e+06 0.021982 
331 1.94856e+06 0.025000 
332 1.94856e+06 0.025000 
333 1.94856e+06 0.022419 
334 1.94856e+06 0.025000 
335 1.94856e+06 0.024918 
336 1.94856e+06 0.033473 
337 1.94856e+06 0.025000 
338 1.94856e+06 0.025000 
339 1.94856e+06 0.022419 
340 1.94856e+06 0.025000 
341 1.94856e+06 0.024918 
342 1.94856e+06 0.033476 
343 1.94856e+06 0.025000 
344 1.94856e+06 0.025000 
345 1.94856e+06 0.025000 
346 1.94856e+06 0.025000 
347 1.94856e+06 0.024918 
348 1.94856e+06 0.033473 
349 1.94856e+06 0.025000 
350 1.94856e+06 0.025000 
351 1.94856e+06 0.024158 
352 1.94856e+06 0.025000 
353 1.94856e+06 0.027241 
354 1.94856e+06 0.021286 
355 1.94856e+06 0.025000 
356 1.94856e+06 0.025000 
357 1.94856e+06 0.025000 
358 1.94856e+06 0.025000 
359 1.94856e+06 0.024918 
360 1.94856e+06 0.033473 
361 1.94856e+06 0.025000 
362 1.94856e+06 0.025000 
363 1.94856e+06 0.025000 
364 1.94856e+06 0.025000 
365 1.94856e+06 0.024918 
366 1.94856e+06 0.033476 
367 1.94856e+06 0.025000 
368 1.94856e+06 0.025000 
369 1.94856e+06 0.025000 
370 1.94856e+06 0.025000 
371 1.94856e+06 0.024918 
372 1.94856e+06 0.033473 
373 1.94856e+06 0.025000 
374 1.94856e+06 0.025000 
375 1.94856e+06 0.025000 
376 1.94856e+06 0.025000 
377 1.94856e+06 0.024918 
378 1.94856e+06 0.033476 
379 1.94856e+06 0.025000 
380 1.94856e+06 0.025000 
381 1.94856e+06 0.025000 
382 1.94856e+06 0.025000 
383 1.94856e+06 0.024918 
384 1.94856e+06 0.033473 
385 1.94856e+06 0.025000 
386 1.94856e+06 0.025000 
387 1.94856e+06 0.022419 
388 1.94856e+06 0.025000 
389 1.94856e+06 0.027241 
390 1.94856e+06 0.021286 
391 1.94856e+06 0.025000 
392 1.94856e+06 0.025000 
393 1.94856e+06 0.025000 
394 1.94856e+06 0.025000 
395 1.94856e+06 0.029005 
396 1.94856e+06 0.021982 
397 1.94856e+06 0.025000 
398 1.94856e+06 0.025000 
399 1.94856e+06 0.024296 
400 1.94856e+06 0.025136 
401 1.94856e+06 0.022911 
402 1.94856e+06 0.019410 
403 1.94856e+06 0.025000 
404 1.94856e+06 0.025000 
405 1.94856e+06 0.025000 
406 1.94856e+06 0.025000 
407 1.94856e+06 0.024918 
408 1.94856e+06 0.033476 
409 1.94856e+06 0.025000 
410 1.94856e+06 0.025000 
411 1.94856e+06 0.025000 
412 1.94856e+06 0.025000 
413 1.94856e+06 0.027241 
414 1.94856e+06 0.021286 
415 1.94856e+06 0.025000 
416 1.94856e+06 0.025000 
417 1.94856e+06 0.024158 
418 1.94856e+06 0.025000 
419 1.94856e+06 0.027241 
420 1.94856e+06 0.021286 
421 1.94856e+06 0.025000 
422 1.94856e+06 0.025000 
423 1.94856e+06 0.025000 
424 1.94856e+06 0.025000 
425 1.94856e+06 0.024918 
426 1.94856e+06 0.033473 
427 1.94856e+06 0.025000 
428 1.94856e+06 0.025000 
429 1.94856e+06 0.025000 
430 1.94856e+06 0.025000 
431 1.94856e+06 0.024918 
432 1.94856e+06 0.033476 
433 1.94856e+06 0.025000 
434 1.94856e+06 0.025000 
435 1.94856e+06 0.022419 
436 1.94856e+06 0.025000 
437 1.94856e+06 0.027241 
438 1.94856e+06 0.021286 
439 1.94856e+06 0.025000 
440 1.94856e+06 0.025000 
441 1.94856e+06 0.024158 
442 1.94856e+06 0.025000 
443 1.94856e+06 0.027241 
444 1.94856e+06 0.021286 
445 1.94856e+06 0.025000 
446 1.94856e+06 0.025000 
447 1.94856e+06 0.024158 
448 1.94856e+06 0.025000 
449 1.94856e+06 0.027243 
450 1.94856e+06 0.021817 
451 1.94856e+06 0.025000 
452 1.94856e+06 0.025000 
453 1.94856e+06 0.025000 
454 1.94856e+06 0.025000 
455 1.94856e+06 0.024918 
456 1.94856e+06 0.033476 
457 1.94856e+06 0.025000 
458 1.94856e+06 0.025000 
459 1.94856e+06 0.025000 
460 1.94856e+06 0.025000 
461 1.94856e+06 0.027241 
462 1.94856e+06 0.021286 
463 1.94856e+06 0.025000 
464 1.94856e+06 0.025000 
465 1.94856e+06 0.024158 
466 1.94856e+06 0.025000 
467 1.94856e+06 0.027241 
468 1.94856e+06 0.021286 
469 1.94856e+06 0.025000 
470 1.94856e+06 0.025000 
471 1.94856e+06 0.025000 
472 1.94856e+06 0.025000 
473 1.94856e+06 0.024918 
474 1.94856e+06 0.033473 
475 1.94856e+06 0.025000 
476 1.94856e+06 0.025000 
477 1.94856e+06 0.025000 
478 1.94856e+06 0.025000 
479 1.94856e+06 0.024918 
480 1.94856e+06 0.033476 
481 1.94856e+06 0.025000 
482 1.94856e+06 0.025000 
483 1.94856e+06 0.025000 
484 1.94856e+06 0.025000 
485 1.94856e+06 0.027241 
486 1.94856e+06 0.021286 
487 1.94856e+06 0.025000 
488 1.94856e+06 0.025000 
489 1.94856e+06 0.024158 
490 1.94856e+06 0.025000 
491 1.94856e+06 0.027243 
492 1.94856e+06 0.021817 
493 1.94856e+06 0.025000 
494 1.94856e+06 0.025000 
495 1.94856e+06 0.025000 
496 1.94856e+06 0.025000 
497 1.94856e+06 0.024918 
498 1.94856e+06 0.033473 
499 1.94856e+06 0.025000 
500 1.94856e+06 0.025000 
501 1.94856e+06 0.025000 
502 1.94856e+06 0.025000 
503 1.94856e+06 0.024918 
504 1.94856e+06 0.033476 
505 1.94856e+06 0.025000 
506 1.94856e+06 0.027420 
507 1.94856e+06 0.025000 
508 1.94856e+06 0.032050 
509 1.94856e+06 0.025882 
510 1.94856e+06 0.025630 
511 1.94856e+06 0.029415 
512 1.94856e+06 0.025019 
513 1.94856e+06 0.021982 
514 1.94856e+06 0.025882 
515 1.94856e+06 0.025882 
516 1.94856e+06 0.022256 
517 1.94856e+06 0.025882 
518 1.94856e+06 0.029104 
519 1.94856e+06 0.022760 
520 1.94856e+06 0.022197 
521 1.94856e+06 0.024007 
522 1.94856e+06 0.025013 
523 1.94856e+06 0.023337 
524 1.94856e+06 0.026439 
525 1.94856e+06 0.026481 
526 1.94856e+06 0.025000 
527 1.94856e+06 0.027241 
528 1.94856e+06 0.025000 
529 1.94856e+06 0.019036 
530 1.94856e+06 0.025013 
531 1.94856e+06 0.023337 
532 1.94856e+06 0.026439 
533 1.94856e+06 0.027545 
534 1.94856e+06 0.025882 
535 1.94856e+06 0.025882 
536 1.94856e+06 0.025882 
537 1.94856e+06 0.025882 
538 1.94856e+06 0.028981 
539 1.94856e+06 0.023159 
540 1.94856e+06 0.022171 
541 1.94856e+06 0.023919 
542 1.94856e+06 0.025000 
543 1.94856e+06 0.027241 
544 1.94856e+06 0.026203 
545 1.94856e+06 0.019636 
546 1.94856e+06 0.022419 
547 1.94856e+06 0.024473 
548 1.94856e+06 0.026594 
549 1.94856e+06 0.027526 
550 1.94856e+06 0.025000 
551 1.94856e+06 0.027241 
552 1.94856e+06 0.026203 
553 1.94856e+06 0.019636 
554 1.94856e+06 0.025882 
555 1.94856e+06 0.025882 
556 1.94856e+06 0.025882 
557 1.94856e+06 0.025882 
558 1.94856e+06 0.029104 
559 1.94856e+06 0.023076 
560 1.94856e+06 0.022197 
561 1.94856e+06 0.024007 
562 1.94856e+06 0.025000 
563 1.94856e+06 0.027241 
564 1.94856e+06 0.026203 
565 1.94856e+06 0.019636 
566 1.94856e+06 0.028429 
567 1.94856e+06 0.027241 
568 1.94856e+06 0.025022 
569 1.94856e+06 0.021286 
570 1.94856e+06 0.025000 
571 1.94856e+06 0.027241 
572 1.94856e+06 0.026203 
573 1.94856e+06 0.019636 
574 1.94856e+06 0.025882 
575 1.94856e+06 0.025882 
576 1.94856e+06 0.025882 
577 1.94856e+06 0.025882 
578 1.94856e+06 0.028035 
579 1.94856e+06 0.023018 
580 1.94856e+06 0.023228 
581 1.94856e+06 0.024988 
582 1.94856e+06 0.022256 
583 1.94856e+06 0.022419 
584 1.94856e+06 0.024473 
585 1.94856e+06 0.026594 
586 1.94856e+06 0.026737 
587 1.94856e+06 0.026914 
588 1.94856e+06 0.023603 
589 1.94856e+06 0.028139 
590 1.94856e+06 0.023090 
591 1.94856e+06 0.025882 
592 1.94856e+06 0.025000 
593 1.94856e+06 0.024918 
594 1.94856e+06 0.025773 
595 1.94856e+06 0.033529 
596 1.94856e+06 0.025882 
597 1.94856e+06 0.025882 
598 1.94856e+06 0.022257 
599 1.94856e+06 0.025882 
600 1.94856e+06 0.025000 
601 1.94856e+06 0.022688 
602 1.94856e+06 0.028815 
603 1.94856e+06 0.021982 
604 1.94856e+06 0.025000 
605 1.94856e+06 0.022911 
606 1.94856e+06 0.025146 
607 1.94856e+06 0.019041 
608 1.94856e+06 0.028429 
609 1.94856e+06 0.025842 
610 1.94856e+06 0.025000 
611 1.94856e+06 0.029304 
612 1.94856e+06 0.025000 
613 1.94856e+06 0.022911 
614 1.94856e+06 0.025146 
615 1.94856e+06 0.019041 
616 1.94856e+06 0.022259 
617 1.94856e+06 0.025882 
618 1.94856e+06 0.025882 
619 1.94856e+06 0.025882 
620 1.94856e+06 0.025000 
621 1.94856e+06 0.022911 
622 1.94856e+06 0.025146 
623 1.94856e+06 0.019041 
624 1.94856e+06 0.025000 
625 1.94856e+06 0.025314 
626 1.94856e+06 0.025146 
627 1.94856e+06 0.019672 
628 1.94856e+06 0.025000 
629 1.94856e+06 0.022178 
630 1.94856e+06 0.025146 
631 1.94856e+06 0.019026 
632 1.94856e+06 0.025000 
633 1.94856e+06 0.022911 
634 1.94856e+06 0.025146 
635 1.94856e+06 0.019041 
636 1.94856e+06 0.022259 
637 1.94856e+06 0.025882 
638 1.94856e+06 0.025882 
639 1.94856e+06 0.025882 
640 1.94856e+06 0.025000 
641 1.94856e+06 0.024918 
642 1.94856e+06 0.024426 
643 1.94856e+06 0.033448 
644 1.94856e+06 0.025000 
645 1.94856e+06 0.022911 
646 1.94856e+06 0.025146 
647 1.94856e+06 0.019041 
648 1.94856e+06 0.026914 
649 1.94856e+06 0.024918 
650 1.94856e+06 0.024794 
651 1.94856e+06 0.033356 
652 1.94856e+06 0.025000 
653 1.94856e+06 0.022911 
654 1.94856e+06 0.025146 
655 1.94856e+06 0.019041 
656 1.94856e+06 0.025882 
657 1.94856e+06 0.025882 
658 1.94856e+06 0.025882 
659 1.94856e+06 0.025882 
660 1.94856e+06 0.025000 
661 1.94856e+06 0.022911 
662 1.94856e+06 0.025146 
663 1.94856e+06 0.019041 
664 1.94856e+06 0.025882 
665 1.94856e+06 0.025000 
666 1.94856e+06 0.025314 
667 1.94856e+06 0.025146 
668 1.94856e+06 0.019672 
669 1.94856e+06 0.025000 
670 1.94856e+06 0.025000 
671 1.94856e+06 0.025000 
672 1.94856e+06 0.025007 
673 1.94856e+06 0.028872 
674 1.94856e+06 0.023802 
675 1.94856e+06 0.025000 
676 1.94856e+06 0.025000 
677 1.94856e+06 0.025000 
678 1.94856e+06 0.026125 
679 1.94856e+06 0.026954 
680 1.94856e+06 0.019402 
681 1.94856e+06 0.025000 
682 1.94856e+06 0.025000 
683 1.94856e+06 0.025882 
684 1.94856e+06 0.025000 
685 1.94856e+06 0.025000 
686 1.94856e+06 0.025882 
687 1.94856e+06 0.025000 
688 1.94856e+06 0.025000 
689 1.94856e+06 0.028429 
690 1.94856e+06 0.027241 
691 1.94856e+06 0.025022 
692 1.94856e+06 0.021286 
693 1.94856e+06 0.025000 
694 1.94856e+06 0.025000 
695 1.94856e+06 0.022256 
696 1.94856e+06 0.025000 
697 1.94856e+06 0.025000 
698 1.94856e+06 0.025000 
699 1.94856e+06 0.025000 
700 1.94856e+06 0.026111 
701 1.94856e+06 0.027544 
702 1.94856e+06 0.025000 
703 1.94856e+06 0.025000 
704 1.94856e+06 0.025000 
705 1.94856e+06 0.022688 
706 1.94856e+06 0.028931 
707 1.94856e+06 0.023843 
708 1.94856e+06 0.025000 
709 1.94856e+06 0.025000 
710 1.94856e+06 0.022256 
711 1.94856e+06 0.025000 
712 1.94856e+06 0.025000 
713 1.94856e+06 0.028429 
714 1.94856e+06 0.027241 
715 1.94856e+06 0.025022 
716 1.94856e+06 0.021286 
717 1.94856e+06 0.025000 
718 1.94856e+06 0.025000 
719 1.94856e+06 0.025882 
720 1.94856e+06 0.025000 
721 1.94856e+06 0.025000 
722 1.94856e+06 0.025882 
723 1.94856e+06 0.025000 
724 1.94856e+06 0.025000 
725 1.94856e+06 0.025000 
726 1.94856e+06 0.025146 
727 1.94856e+06 0.023704 
728 1.94856e+06 0.019257 
729 1.94856e+06 0.025000 
730 1.94856e+06 0.025000 
731 1.94856e+06 0.025000 
732 1.94856e+06 0.025007 
733 1.94856e+06 0.028872 
734 1.94856e+06 0.023600 
735 1.94856e+06 0.025000 
736 1.94856e+06 0.025000 
737 1.94856e+06 0.025000 
738 1.94856e+06 0.025007 
739 1.94856e+06 0.028757 
740 1.94856e+06 0.021982 
741 1.94856e+06 0.025000 
742 1.94856e+06 0.025000 
743 1.94856e+06 0.025000 
744 1.94856e+06 0.025397 
745 1.94856e+06 0.023705 
746 1.94856e+06 0.020825 
747 1.94856e+06 0.025000 
748 1.94856e+06 0.025000 
749 1.94856e+06 0.022256 
750 1.94856e+06 0.025000 
751 1.94856e+06 0.025000 
752 1.94856e+06 0.025882 
753 1.94856e+06 0.025000 
754 1.94856e+06 0.025000 
755 1.94856e+06 0.025000 
756 1.94856e+06 0.025007 
757 1.94856e+06 0.028757 
758 1.94856e+06 0.023223 
759 1.94856e+06 0.025000 
760 1.94856e+06 0.025000 
761 1.94856e+06 0.022256 
762 1.94856e+06 0.025000 
763 1.94856e+06 0.025000 
764 1.94856e+06 0.025000 
765 1.94856e+06 0.027241 
766 1.94856e+06 0.026203 
767 1.94856e+06 0.019636 
768 1.94856e+06 0.025000 
769 1.94856e+06 0.025000 
770 1.94856e+06 0.025000 
771 1.94856e+06 0.025007 
772 1.94856e+06 0.028872 
773 1.94856e+06 0.023600 
774 1.94856e+06 0.025000 
775 1.94856e+06 0.025000 
776 1.94856e+06 0.025882 
777 1.94856e+06 0.025000 
778 1.94856e+06 0.025000 
779 1.94856e+06 0.025000 
780 1.94856e+06 0.027241 
781 1.94856e+06 0.026203 
782 1.94856e+06 0.019636 
783 1.94856e+06 0.025000 
784 1.94856e+06 0.025000 
785 1.94856e+06 0.025882 
786 1.94856e+06 0.025000 
787 1.94856e+06 0.025000 
788 1.94856e+06 0.025882 
789 1.94856e+06 0.025000 
790 1.94856e+06 0.025000 
791 1.94856e+06 0.028035 
792 1.94856e+06 0.023018 
793 1.94856e+06 0.023229 
794 1.94856e+06 0.025003 
795 1.94856e+06 0.025000 
796 1.94856e+06 0.025000 
797 1.94856e+06 0.025000 
798 1.94856e+06 0.024158 
799 1.94856e+06 0.025955 
800 1.94856e+06 0.025702 
801 1.94856e+06 0.025000 
802 1.94856e+06 0.025000 
803 1.94856e+06 0.028982 
804 1.94856e+06 0.023160 
805 1.94856e+06 0.022171 
806 1.94856e+06 0.023919 
807 1.94856e+06 0.025000 
808 1.94856e+06 0.025000 
809 1.94856e+06 0.025000 
810 1.94856e+06 0.025000 
811 1.94856e+06 0.026111 
812 1.94856e+06 0.027545 
813 1.94856e+06 0.025000 
814 1.94856e+06 0.025000 
815 1.94856e+06 0.025882 
816 1.94856e+06 0.025000 
817 1.94856e+06 0.025000 
818 1.94856e+06 0.025882 
819 1.94856e+06 0.025000 
820 1.94856e+06 0.025000 
821 1.94856e+06 0.025752 
822 1.94856e+06 0.025000 
823 1.94856e+06 0.025000 
824 1.94856e+06 0.025000 
825 1.94856e+06 0.025007 
826 1.94856e+06 0.028757 
827 1.94856e+06 0.021982 
828 1.94856e+06 0.025000 
829 1.94856e+06 0.025000 
830 1.94856e+06 0.025000 
831 1.94856e+06 0.026672 
832 1.94856e+06 0.026203 
833 1.94856e+06 0.021286 
834 1.94856e+06 0.025000 
835 1.94856e+06 0.025000 
836 1.94856e+06 0.025000 
837 1.94856e+06 0.025000 
838 1.94856e+06 0.026111 
839 1.94856e+06 0.027544 
840 1.94856e+06 0.025000 
841 1.94856e+06 0.025000 
842 1.94856e+06 0.025000 
843 1.94856e+06 0.025007 
844 1.94856e+06 0.028757 
845 1.94856e+06 0.023223 
846 1.94856e+06 0.025000 
847 1.94856e+06 0.025000 
848 1.94856e+06 0.022258 
849 1.94856e+06 0.025000 
850 1.94856e+06 0.025000 
851 1.94856e+06 0.022256 
852 1.94856e+06 0.025000 
853 1.94856e+06 0.025000 
854 1.94856e+06 0.022259 
855 1.94856e+06 0.025000 
856 1.94856e+06 0.025000 
857 1.94856e+06 0.025000 
858 1.94856e+06 0.025007 
859 1.94856e+06 0.028872 
860 1.94856e+06 0.023600 
861 1.94856e+06 0.025000 
862 1.94856e+06 0.025000 
863 1.94856e+06 0.025000 
864 1.94856e+06 0.025397 
865 1.94856e+06 0.023705 
866 1.94856e+06 0.020825 
867 1.94856e+06 0.025000 
868 1.94856e+06 0.025000 
869 1.94856e+06 0.025000 
870 1.94856e+06 0.025281 
871 1.94856e+06 0.023417 
872 1.94856e+06 0.019792 
873 1.94856e+06 0.025000 
874 1.94856e+06 0.025000 
875 1.94856e+06 0.025000 
876 1.94856e+06 0.022704 
877 1.94856e+06 0.026177 
878 1.94856e+06 0.026020 
879 1.94856e+06 0.025000 
880 1.94856e+06 0.025000 
881 1.94856e+06 0.025882 
882 1.94856e+06 0.025000 
883 1.94856e+06 0.025000 
884 1.94856e+06 0.022258 
885 1.94856e+06 0.025000 
886 1.94856e+06 0.025000 
887 1.94856e+06 0.022256 
888 1.94856e+06 0.025000 
889 1.94856e+06 0.025000 
890 1.94856e+06 0.028980 
891 1.94856e+06 0.023056 
892 1.94856e+06 0.021969 
893 1.94856e+06 0.023635 
894 1.94856e+06 0.025000 
895 1.94856e+06 0.025000 
896 1.94856e+06 0.025000 
897 1.94856e+06 0.025007 
898 1.94856e+06 0.028872 
899 1.94856e+06 0.023802 
900 1.94856e+06 0.025000 
901 1.94856e+06 0.025000 
902 1.94856e+06 0.025013 
903 1.94856e+06 0.023337 
904 1.94856e+06 0.026439 
905 1.94856e+06 0.027545 
906 1.94856e+06 0.025000 
907 1.94856e+06 0.025000 
908 1.94856e+06 0.025000 
909 1.94856e+06 0.026125 
910 1.94856e+06 0.026954 
911 1.94856e+06 0.019402 
912 1.94856e+06 0.025000 
913 1.94856e+06 0.025000 
914 1.94856e+06 0.025882 
915 1.94856e+06 0.025000 
916 1.94856e+06 0.025000 
917 1.94856e+06 0.025882 
918 1.94856e+06 0.025000 
919 1.94856e+06 0.025000 
920 1.94856e+06 0.025882 
921 1.94856e+06 0.025000 
922 1.94856e+06 0.025000 
923 1.94856e+06 0.025000 
924 1.94856e+06 0.022704 
925 1.94856e+06 0.026153 
926 1.94856e+06 0.026021 
927 1.94856e+06 0.025000 
928 1.94856e+06 0.025000 
929 1.94856e+06 0.025000 
930 1.94856e+06 0.025397 
931 1.94856e+06 0.023705 
932 1.94856e+06 0.020825 
933 1.94856e+06 0.025000 
934 1.94856e+06 0.025000 
935 1.94856e+06 0.022256 
936 1.94856e+06 0.025000 
937 1.94856e+06 0.025000 
938 1.94856e+06 0.025000 
939 1.94856e+06 0.025000 
940 1.94856e+06 0.026111 
941 1.94856e+06 0.027470 
942 1.94856e+06 0.025000 
943 1.94856e+06 0.025000 
944 1.94856e+06 0.025000 
945 1.94856e+06 0.025397 
946 1.94856e+06 0.023845 
947 1.94856e+06 0.020825 
948 1.94856e+06 0.025000 
949 1.94856e+06 0.025000 
950 1.94856e+06 0.020929 
951 1.94856e+06 0.023316 
952 1.94856e+06 0.025070 
953 1.94856e+06 0.017695 
954 1.94856e+06 0.025000 
955 1.94856e+06 0.025000 
956 1.94856e+06 0.025000 
957 1.94856e+06 0.027241 
958 1.94856e+06 0.026203 
959 1.94856e+06 0.019636 
960 1.94856e+06 0.025000 
961 1.94856e+06 0.025000 
962 1.94856e+06 0.022256 
963 1.94856e+06 0.025000 
964 1.94856e+06 0.025000 
965 1.94856e+06 0.025882 
966 1.94856e+06 0.025000 
967 1.94856e+06 0.025000 
968 1.94856e+06 0.025882 
969 1.94856e+06 0.025000 
970 1.94856e+06 0.025000 
971 1.94856e+06 0.025882 
972 1.94856e+06 0.025000 
973 1.94856e+06 0.025000 
974 1.94856e+06 0.025000 
975 1.94856e+06 0.025000 
976 1.94856e+06 0.025000 
977 1.94856e+06 0.025882 
978 1.94856e+06 0.025000 
979 1.94856e+06 0.025000 
980 1.94856e+06 0.025000 
981 1.94856e+06 0.022688 
982 1.94856e+06 0.028815 
983 1.94856e+06 0.021982 
984 1.94856e+06 0.025000 
985 1.94856e+06 0.025000 
986 1.94856e+06 0.020887 
987 1.94856e+06 0.023590 
988 1.94856e+06 0.023163 
989 1.94856e+06 0.017688 
990 1.94856e+06 0.025000 
991 1.94856e+06 0.025000 
992 1.94856e+06 0.022419 
993 1.94856e+06 0.024473 
994 1.94856e+06 0.026594 
995 1.94856e+06 0.027528 
996 1.94856e+06 0.025000 
997 1.94856e+06 0.025000 
998 1.94856e+06 0.025882 
999 1.94856e+06 0.025000 
1000 1.94856e+06 0.025000 
1001 1.94856e+06 0.025882 
1002 1.94856e+06 0.025000 
1003 1.94856e+06 0.025000 
1004 1.94856e+06 0.025000 
1005 1.94856e+06 0.027420 
1006 1.94856e+06 0.025000 
1007 1.94856e+06 0.032050 
1008 1.94856e+06 0.025000 
1009 1.94856e+06 0.025000 
1010 1.94856e+06 0.025000 
1011 1.94856e+06 0.027241 
1012 1.94856e+06 0.026203 
1013 1.94856e+06 0.019636 
1014 1.94856e+06 0.025000 
1015 1.94856e+06 0.025000 
1016 1.94856e+06 0.022419 
1017 1.94856e+06 0.022373 
1018 1.94856e+06 0.026156 
1019 1.94856e+06 0.026018 
1020 1.94856e+06 0.025000 
1021 1.94856e+06 0.025000 
1022 1.94856e+06 0.025000 
1023 1.94856e+06 0.027241 
1024 1.94856e+06 0.026203 
1025 1.94856e+06 0.019636 
1026 1.94856e+06 0.025000 
1027 1.94856e+06 0.025000 
1028 1.94856e+06 0.025882 
1029 1.94856e+06 0.025000 
1030 1.94856e+06 0.025000 
1031 1.94856e+06 0.025882 
1032 1.94856e+06 0.025000 
1033 1.94856e+06 0.025000 
1034 1.94856e+06 0.025882 
1035 1.94856e+06 0.025000 
1036 1.94856e+06 0.025000 
1037 1.94856e+06 0.025882 
1038 1.94856e+06 0.025000 
1039 1.94856e+06 0.025000 
1040 1.94856e+06 0.022419 
1041 1.94856e+06 0.024473 
1042 1.94856e+06 0.022830 
1043 1.94856e+06 0.025972 
1044 1.94856e+06 0.025000 
1045 1.94856e+06 0.025000 
1046 1.94856e+06 0.025000 
1047 1.94856e+06 0.022911 
1048 1.94856e+06 0.025146 
1049 1.94856e+06 0.019041 
1050 1.94856e+06 0.025000 
1051 1.94856e+06 0.025000 
1052 1.94856e+06 0.022419 
1053 1.94856e+06 0.024473 
1054 1.94856e+06 0.026594 
1055 1.94856e+06 0.027172 
1056 1.94856e+06 0.025000 
1057 1.94856e+06 0.025000 
1058 1.94856e+06 0.025000 
1059 1.94856e+06 0.027241 
1060 1.94856e+06 0.026203 
1061 1.94856e+06 0.019636 
1062 1.94856e+06 0.025000 
1063 1.94856e+06 0.025000 
1064 1.94856e+06 0.025882 
1065 1.94856e+06 0.025000 
1066 1.94856e+06 0.025000 
1067 1.94856e+06 0.025882 
1068 1.94856e+06 0.025000 
1069 1.94856e+06 0.025000 
1070 1.94856e+06 0.022419 
1071 1.94856e+06 0.024473 
1072 1.94856e+06 0.026594 
1073 1.94856e+06 0.027547 
1074 1.94856e+06 0.025000 
1075 1.94856e+06 0.025000 
1076 1.94856e+06 0.023167 
1077 1.94856e+06 0.024247 
1078 1.94856e+06 0.022813 
1079 1.94856e+06 0.026438 
1080 1.94856e+06 0.025000 
1081 1.94856e+06 0.025000 
1082 1.94856e+06 0.025000 
1083 1.94856e+06 0.025000 
1084 1.94856e+06 0.026111 
1085 1.94856e+06 0.027470 
1086 1.94856e+06 0.025000 
1087 1.94856e+06 0.025000 
1088 1.94856e+06 0.025000 
1089 1.94856e+06 0.023924 
1090 1.94856e+06 0.026203 
1091 1.94856e+06 0.019289 
1092 1.94856e+06 0.025000 
1093 1.94856e+06 0.025000 
1094 1.94856e+06 0.025882 
1095 1.94856e+06 0.025000 
1096 1.94856e+06 0.025000 
1097 1.94856e+06 0.025882 
1098 1.94856e+06 0.025000 
1099 1.94856e+06 0.025000 
1100 1.94856e+06 0.025882 
1101 1.94856e+06 0.025000 
1102 1.94856e+06 0.025000 
1103 1.94856e+06 0.022256 
1104 1.94856e+06 0.025000 
1105 1.94856e+06 0.025000 
1106 1.94856e+06 0.022419 
1107 1.94856e+06 0.024473 
1108 1.94856e+06 0.026594 
1109 1.94856e+06 0.027646 
1110 1.94856e+06 0.025000 
1111 1.94856e+06 0.025000 
1112 1.94856e+06 0.028429 
1113 1.94856e+06 0.025000 
1114 1.94856e+06 0.028891 
1115 1.94856e+06 0.022863 
1116 1.94856e+06 0.025000 
1117 1.94856e+06 0.025000 
1118 1.94856e+06 0.023167 
1119 1.94856e+06 0.024247 
1120 1.94856e+06 0.026581 
1121 1.94856e+06 0.026483 
1122 1.94856e+06 0.025000 
1123 1.94856e+06 0.025000 
1124 1.94856e+06 0.025000 
1125 1.94856e+06 0.027241 
1126 1.94856e+06 0.025000 
1127 1.94856e+06 0.019036 
1128 1.94856e+06 0.025000 
1129 1.94856e+06 0.025000 
1130 1.94856e+06 0.025882 
1131 1.94856e+06 0.025000 
1132 1.94856e+06 0.025000 
1133 1.94856e+06 0.025882 
1134 1.94856e+06 0.025000 
1135 1.94856e+06 0.025000 
1136 1.94856e+06 0.022419 
1137 1.94856e+06 0.024473 
1138 1.94856e+06 0.022830 
1139 1.94856e+06 0.025972 
1140 1.94856e+06 0.025000 
1141 1.94856e+06 0.025000 
1142 1.94856e+06 0.024383 
1143 1.94856e+06 0.022635 
1144 1.94856e+06 0.026181 
1145 1.94856e+06 0.026021 