LAMMPS DATA FILE 

14926 atoms 
33816 bonds 

4 atom types 
33816 bond types 

-2.668277 2.669047 xlo xhi 
-2.656584 2.658504 ylo yhi 
-0.006658 0.006658 zlo zhi 

Bond Coeffs # harmonic 

1 1.55885e+09 0.025005 
2 1.55885e+09 0.024996 
3 1.55885e+09 0.023138 
4 1.55885e+09 0.029239 
5 1.55885e+09 0.017839 
6 1.55885e+09 0.020633 
7 1.55885e+09 0.024996 
8 1.55885e+09 0.024996 
9 1.55885e+09 0.023250 
10 1.55885e+09 0.029283 
11 1.55885e+09 0.017858 
12 1.55885e+09 0.020400 
13 1.55885e+09 0.025010 
14 1.55885e+09 0.025002 
15 1.55885e+09 0.021997 
16 1.55885e+09 0.027317 
17 1.55885e+09 0.017489 
18 1.55885e+09 0.024996 
19 1.55885e+09 0.024996 
20 1.55885e+09 0.021872 
21 1.55885e+09 0.027229 
22 1.55885e+09 0.017691 
23 1.55885e+09 0.025001 
24 1.55885e+09 0.024997 
25 1.55885e+09 0.022877 
26 1.55885e+09 0.027048 
27 1.55885e+09 0.017850 
28 1.55885e+09 0.020638 
29 1.55885e+09 0.025002 
30 1.55885e+09 0.025006 
31 1.55885e+09 0.023047 
32 1.55885e+09 0.029196 
33 1.55885e+09 0.017813 
34 1.55885e+09 0.020806 
35 1.55885e+09 0.025006 
36 1.55885e+09 0.024997 
37 1.55885e+09 0.023085 
38 1.55885e+09 0.026926 
39 1.55885e+09 0.017396 
40 1.55885e+09 0.020533 
41 1.55885e+09 0.024997 
42 1.55885e+09 0.024998 
43 1.55885e+09 0.023155 
44 1.55885e+09 0.026859 
45 1.55885e+09 0.017426 
46 1.55885e+09 0.020368 
47 1.55885e+09 0.025001 
48 1.55885e+09 0.025001 
49 1.55885e+09 0.022934 
50 1.55885e+09 0.027376 
51 1.55885e+09 0.017781 
52 1.55885e+09 0.020574 
53 1.55885e+09 0.025001 
54 1.55885e+09 0.025001 
55 1.55885e+09 0.021689 
56 1.55885e+09 0.022639 
57 1.55885e+09 0.027161 
58 1.55885e+09 0.018946 
59 1.55885e+09 0.025001 
60 1.55885e+09 0.024996 
61 1.55885e+09 0.023372 
62 1.55885e+09 0.027353 
63 1.55885e+09 0.017378 
64 1.55885e+09 0.019976 
65 1.55885e+09 0.025001 
66 1.55885e+09 0.025001 
67 1.55885e+09 0.023390 
68 1.55885e+09 0.027568 
69 1.55885e+09 0.017302 
70 1.55885e+09 0.020027 
71 1.55885e+09 0.025000 
72 1.55885e+09 0.024994 
73 1.55885e+09 0.022863 
74 1.55885e+09 0.026878 
75 1.55885e+09 0.017894 
76 1.55885e+09 0.020669 
77 1.55885e+09 0.025002 
78 1.55885e+09 0.024994 
79 1.55885e+09 0.023151 
80 1.55885e+09 0.029236 
81 1.55885e+09 0.017838 
82 1.55885e+09 0.020630 
83 1.55885e+09 0.025000 
84 1.55885e+09 0.025002 
85 1.55885e+09 0.021637 
86 1.55885e+09 0.022522 
87 1.55885e+09 0.027100 
88 1.55885e+09 0.019260 
89 1.55885e+09 0.024994 
90 1.55885e+09 0.025000 
91 1.55885e+09 0.023075 
92 1.55885e+09 0.026865 
93 1.55885e+09 0.017395 
94 1.55885e+09 0.020527 
95 1.55885e+09 0.025001 
96 1.55885e+09 0.025000 
97 1.55885e+09 0.023424 
98 1.55885e+09 0.029111 
99 1.55885e+09 0.017343 
100 1.55885e+09 0.020394 
101 1.55885e+09 0.025001 
102 1.55885e+09 0.025003 
103 1.55885e+09 0.021688 
104 1.55885e+09 0.022483 
105 1.55885e+09 0.027194 
106 1.55885e+09 0.019287 
107 1.55885e+09 0.024999 
108 1.55885e+09 0.025001 
109 1.55885e+09 0.023131 
110 1.55885e+09 0.026934 
111 1.55885e+09 0.017389 
112 1.55885e+09 0.020424 
113 1.55885e+09 0.025001 
114 1.55885e+09 0.024999 
115 1.55885e+09 0.021819 
116 1.55885e+09 0.026756 
117 1.55885e+09 0.017859 
118 1.55885e+09 0.025000 
119 1.55885e+09 0.025000 
120 1.55885e+09 0.022963 
121 1.55885e+09 0.027384 
122 1.55885e+09 0.017784 
123 1.55885e+09 0.021063 
124 1.55885e+09 0.025000 
125 1.55885e+09 0.025000 
126 1.55885e+09 0.022961 
127 1.55885e+09 0.027272 
128 1.55885e+09 0.017826 
129 1.55885e+09 0.021032 
130 1.55885e+09 0.025000 
131 1.55885e+09 0.025000 
132 1.55885e+09 0.021941 
133 1.55885e+09 0.027162 
134 1.55885e+09 0.017498 
135 1.55885e+09 0.025000 
136 1.55885e+09 0.025000 
137 1.55885e+09 0.023353 
138 1.55885e+09 0.027431 
139 1.55885e+09 0.017335 
140 1.55885e+09 0.020041 
141 1.55885e+09 0.025000 
142 1.55885e+09 0.025001 
143 1.55885e+09 0.022827 
144 1.55885e+09 0.026929 
145 1.55885e+09 0.017872 
146 1.55885e+09 0.021298 
147 1.55885e+09 0.024999 
148 1.55885e+09 0.025000 
149 1.55885e+09 0.022800 
150 1.55885e+09 0.027016 
151 1.55885e+09 0.017839 
152 1.55885e+09 0.021375 
153 1.55885e+09 0.025000 
154 1.55885e+09 0.025001 
155 1.55885e+09 0.021723 
156 1.55885e+09 0.026703 
157 1.55885e+09 0.017843 
158 1.55885e+09 0.025001 
159 1.55885e+09 0.025000 
160 1.55885e+09 0.021727 
161 1.55885e+09 0.026670 
162 1.55885e+09 0.017845 
163 1.55885e+09 0.024994 
164 1.55885e+09 0.025001 
165 1.55885e+09 0.023003 
166 1.55885e+09 0.027463 
167 1.55885e+09 0.017768 
168 1.55885e+09 0.020988 
169 1.55885e+09 0.024994 
170 1.55885e+09 0.025001 
171 1.55885e+09 0.022927 
172 1.55885e+09 0.027347 
173 1.55885e+09 0.017793 
174 1.55885e+09 0.020585 
175 1.55885e+09 0.025001 
176 1.55885e+09 0.025003 
177 1.55885e+09 0.023203 
178 1.55885e+09 0.029265 
179 1.55885e+09 0.017850 
180 1.55885e+09 0.020493 
181 1.55885e+09 0.025003 
182 1.55885e+09 0.025001 
183 1.55885e+09 0.021967 
184 1.55885e+09 0.027195 
185 1.55885e+09 0.017464 
186 1.55885e+09 0.024993 
187 1.55885e+09 0.025003 
188 1.55885e+09 0.022172 
189 1.55885e+09 0.029188 
190 1.55885e+09 0.017612 
191 1.55885e+09 0.025002 
192 1.55885e+09 0.025004 
193 1.55885e+09 0.023004 
194 1.55885e+09 0.027407 
195 1.55885e+09 0.017786 
196 1.55885e+09 0.020968 
197 1.55885e+09 0.024999 
198 1.55885e+09 0.025002 
199 1.55885e+09 0.023354 
200 1.55885e+09 0.027490 
201 1.55885e+09 0.017318 
202 1.55885e+09 0.020048 
203 1.55885e+09 0.025002 
204 1.55885e+09 0.024999 
205 1.55885e+09 0.021862 
206 1.55885e+09 0.027141 
207 1.55885e+09 0.017738 
208 1.55885e+09 0.025000 
209 1.55885e+09 0.025000 
210 1.55885e+09 0.022786 
211 1.55885e+09 0.026904 
212 1.55885e+09 0.017873 
213 1.55885e+09 0.021385 
214 1.55885e+09 0.024999 
215 1.55885e+09 0.025000 
216 1.55885e+09 0.021693 
217 1.55885e+09 0.022518 
218 1.55885e+09 0.027215 
219 1.55885e+09 0.019215 
220 1.55885e+09 0.025000 
221 1.55885e+09 0.025000 
222 1.55885e+09 0.021775 
223 1.55885e+09 0.026728 
224 1.55885e+09 0.017771 
225 1.55885e+09 0.025000 
226 1.55885e+09 0.025000 
227 1.55885e+09 0.023136 
228 1.55885e+09 0.027044 
229 1.55885e+09 0.017371 
230 1.55885e+09 0.020439 
231 1.55885e+09 0.025000 
232 1.55885e+09 0.025000 
233 1.55885e+09 0.021555 
234 1.55885e+09 0.022738 
235 1.55885e+09 0.027650 
236 1.55885e+09 0.018836 
237 1.55885e+09 0.025001 
238 1.55885e+09 0.025000 
239 1.55885e+09 0.021564 
240 1.55885e+09 0.022724 
241 1.55885e+09 0.027619 
242 1.55885e+09 0.018846 
243 1.55885e+09 0.025000 
244 1.55885e+09 0.025000 
245 1.55885e+09 0.021622 
246 1.55885e+09 0.027109 
247 1.55885e+09 0.017570 
248 1.55885e+09 0.025001 
249 1.55885e+09 0.025000 
250 1.55885e+09 0.021651 
251 1.55885e+09 0.027031 
252 1.55885e+09 0.017557 
253 1.55885e+09 0.025006 
254 1.55885e+09 0.025003 
255 1.55885e+09 0.021622 
256 1.55885e+09 0.022480 
257 1.55885e+09 0.027122 
258 1.55885e+09 0.019248 
259 1.55885e+09 0.024997 
260 1.55885e+09 0.024998 
261 1.55885e+09 0.021716 
262 1.55885e+09 0.022572 
263 1.55885e+09 0.027259 
264 1.55885e+09 0.019041 
265 1.55885e+09 0.025003 
266 1.55885e+09 0.025006 
267 1.55885e+09 0.023052 
268 1.55885e+09 0.029021 
269 1.55885e+09 0.017818 
270 1.55885e+09 0.020787 
271 1.55885e+09 0.024997 
272 1.55885e+09 0.024998 
273 1.55885e+09 0.021400 
274 1.55885e+09 0.026641 
275 1.55885e+09 0.017919 
276 1.55885e+09 0.024999 
277 1.55885e+09 0.024999 
278 1.55885e+09 0.021945 
279 1.55885e+09 0.029084 
280 1.55885e+09 0.017879 
281 1.55885e+09 0.024993 
282 1.55885e+09 0.024999 
283 1.55885e+09 0.022728 
284 1.55885e+09 0.026820 
285 1.55885e+09 0.017889 
286 1.55885e+09 0.021510 
287 1.55885e+09 0.024999 
288 1.55885e+09 0.025007 
289 1.55885e+09 0.021816 
290 1.55885e+09 0.026666 
291 1.55885e+09 0.017875 
292 1.55885e+09 0.024999 
293 1.55885e+09 0.024999 
294 1.55885e+09 0.021110 
295 1.55885e+09 0.029151 
296 1.55885e+09 0.017866 
297 1.55885e+09 0.025004 
298 1.55885e+09 0.025003 
299 1.55885e+09 0.021601 
300 1.55885e+09 0.022717 
301 1.55885e+09 0.027554 
302 1.55885e+09 0.018764 
303 1.55885e+09 0.024998 
304 1.55885e+09 0.025003 
305 1.55885e+09 0.021527 
306 1.55885e+09 0.022783 
307 1.55885e+09 0.027758 
308 1.55885e+09 0.018794 
309 1.55885e+09 0.025003 
310 1.55885e+09 0.024998 
311 1.55885e+09 0.021577 
312 1.55885e+09 0.027115 
313 1.55885e+09 0.017679 
314 1.55885e+09 0.024999 
315 1.55885e+09 0.025003 
316 1.55885e+09 0.023531 
317 1.55885e+09 0.029164 
318 1.55885e+09 0.017376 
319 1.55885e+09 0.020146 
320 1.55885e+09 0.024998 
321 1.55885e+09 0.024997 
322 1.55885e+09 0.021598 
323 1.55885e+09 0.022458 
324 1.55885e+09 0.027139 
325 1.55885e+09 0.019327 
326 1.55885e+09 0.025003 
327 1.55885e+09 0.025005 
328 1.55885e+09 0.021637 
329 1.55885e+09 0.022516 
330 1.55885e+09 0.027102 
331 1.55885e+09 0.019160 
332 1.55885e+09 0.025005 
333 1.55885e+09 0.024998 
334 1.55885e+09 0.023230 
335 1.55885e+09 0.027094 
336 1.55885e+09 0.017383 
337 1.55885e+09 0.020243 
338 1.55885e+09 0.025003 
339 1.55885e+09 0.025005 
340 1.55885e+09 0.023407 
341 1.55885e+09 0.029107 
342 1.55885e+09 0.017341 
343 1.55885e+09 0.020413 
344 1.55885e+09 0.025004 
345 1.55885e+09 0.024998 
346 1.55885e+09 0.021537 
347 1.55885e+09 0.022799 
348 1.55885e+09 0.027760 
349 1.55885e+09 0.018762 
350 1.55885e+09 0.025004 
351 1.55885e+09 0.025004 
352 1.55885e+09 0.021502 
353 1.55885e+09 0.022710 
354 1.55885e+09 0.027692 
355 1.55885e+09 0.018956 
356 1.55885e+09 0.024996 
357 1.55885e+09 0.024998 
358 1.55885e+09 0.021115 
359 1.55885e+09 0.029148 
360 1.55885e+09 0.017858 
361 1.55885e+09 0.024996 
362 1.55885e+09 0.024990 
363 1.55885e+09 0.023600 
364 1.55885e+09 0.029191 
365 1.55885e+09 0.017406 
366 1.55885e+09 0.020035 
367 1.55885e+09 0.028683 
368 1.55885e+09 0.029643 
369 1.55885e+09 0.027288 
370 1.55885e+09 0.029628 
371 1.55885e+09 0.030599 
372 1.55885e+09 0.024815 
373 1.55885e+09 0.029636 
374 1.55885e+09 0.021338 
375 1.55885e+09 0.030013 
376 1.55885e+09 0.025722 
377 1.55885e+09 0.029439 
378 1.55885e+09 0.031440 
379 1.55885e+09 0.019514 
380 1.55885e+09 0.030390 
381 1.55885e+09 0.023583 
382 1.55885e+09 0.025715 
383 1.55885e+09 0.031118 
384 1.55885e+09 0.029435 
385 1.55885e+09 0.026703 
386 1.55885e+09 0.028197 
387 1.55885e+09 0.030335 
388 1.55885e+09 0.023620 
389 1.55885e+09 0.028671 
390 1.55885e+09 0.029633 
391 1.55885e+09 0.026528 
392 1.55885e+09 0.027969 
393 1.55885e+09 0.030294 
394 1.55885e+09 0.023459 
395 1.55885e+09 0.029573 
396 1.55885e+09 0.019895 
397 1.55885e+09 0.030310 
398 1.55885e+09 0.024075 
399 1.55885e+09 0.027907 
400 1.55885e+09 0.031222 
401 1.55885e+09 0.021407 
402 1.55885e+09 0.030015 
403 1.55885e+09 0.025787 
404 1.55885e+09 0.029519 
405 1.55885e+09 0.031445 
406 1.55885e+09 0.028672 
407 1.55885e+09 0.027197 
408 1.55885e+09 0.029436 
409 1.55885e+09 0.030595 
410 1.55885e+09 0.024689 
411 1.55885e+09 0.028686 
412 1.55885e+09 0.029647 
413 1.55885e+09 0.027164 
414 1.55885e+09 0.029384 
415 1.55885e+09 0.030585 
416 1.55885e+09 0.024651 
417 1.55885e+09 0.030438 
418 1.55885e+09 0.021576 
419 1.55885e+09 0.030006 
420 1.55885e+09 0.025961 
421 1.55885e+09 0.029700 
422 1.55885e+09 0.031450 
423 1.55885e+09 0.020145 
424 1.55885e+09 0.030318 
425 1.55885e+09 0.024320 
426 1.55885e+09 0.028168 
427 1.55885e+09 0.031249 
428 1.55885e+09 0.028680 
429 1.55885e+09 0.026295 
430 1.55885e+09 0.027607 
431 1.55885e+09 0.030152 
432 1.55885e+09 0.023093 
433 1.55885e+09 0.028681 
434 1.55885e+09 0.029625 
435 1.55885e+09 0.028670 
436 1.55885e+09 0.029627 
437 1.55885e+09 0.026297 
438 1.55885e+09 0.027605 
439 1.55885e+09 0.030146 
440 1.55885e+09 0.023086 
441 1.55885e+09 0.030441 
442 1.55885e+09 0.020131 
443 1.55885e+09 0.030314 
444 1.55885e+09 0.024292 
445 1.55885e+09 0.026421 
446 1.55885e+09 0.031228 
447 1.55885e+09 0.021588 
448 1.55885e+09 0.030008 
449 1.55885e+09 0.025966 
450 1.55885e+09 0.029718 
451 1.55885e+09 0.031455 
452 1.55885e+09 0.029132 
453 1.55885e+09 0.027149 
454 1.55885e+09 0.029358 
455 1.55885e+09 0.030587 
456 1.55885e+09 0.024635 
457 1.55885e+09 0.028682 
458 1.55885e+09 0.029644 
459 1.55885e+09 0.027196 
460 1.55885e+09 0.029449 
461 1.55885e+09 0.030593 
462 1.55885e+09 0.024692 
463 1.55885e+09 0.029567 
464 1.55885e+09 0.021414 
465 1.55885e+09 0.030016 
466 1.55885e+09 0.025802 
467 1.55885e+09 0.029525 
468 1.55885e+09 0.031444 
469 1.55885e+09 0.019916 
470 1.55885e+09 0.030307 
471 1.55885e+09 0.024089 
472 1.55885e+09 0.027906 
473 1.55885e+09 0.031227 
474 1.55885e+09 0.029437 
475 1.55885e+09 0.026536 
476 1.55885e+09 0.027980 
477 1.55885e+09 0.030292 
478 1.55885e+09 0.023468 
479 1.55885e+09 0.029179 
480 1.55885e+09 0.030436 
481 1.55885e+09 0.026692 
482 1.55885e+09 0.028184 
483 1.55885e+09 0.030332 
484 1.55885e+09 0.023607 
485 1.55885e+09 0.029572 
486 1.55885e+09 0.019523 
487 1.55885e+09 0.030414 
488 1.55885e+09 0.023589 
489 1.55885e+09 0.027482 
490 1.55885e+09 0.031145 
491 1.55885e+09 0.021332 
492 1.55885e+09 0.030018 
493 1.55885e+09 0.025715 
494 1.55885e+09 0.029436 
495 1.55885e+09 0.031437 
496 1.55885e+09 0.029422 
497 1.55885e+09 0.027289 
498 1.55885e+09 0.029632 
499 1.55885e+09 0.030596 
500 1.55885e+09 0.024810 
501 1.55885e+09 0.028669 
502 1.55885e+09 0.030456 
503 1.55885e+09 0.023592 
504 1.55885e+09 0.024924 
505 1.55885e+09 0.020182 
506 1.55885e+09 0.030236 
507 1.55885e+09 0.027779 
508 1.55885e+09 0.030694 
509 1.55885e+09 0.023206 
510 1.55885e+09 0.022850 
511 1.55885e+09 0.024988 
512 1.55885e+09 0.026273 
513 1.55885e+09 0.028126 
514 1.55885e+09 0.027716 
515 1.55885e+09 0.030110 
516 1.55885e+09 0.025000 
517 1.55885e+09 0.025004 
518 1.55885e+09 0.030439 
519 1.55885e+09 0.024999 
520 1.55885e+09 0.025007 
521 1.55885e+09 0.028675 
522 1.55885e+09 0.025167 
523 1.55885e+09 0.026954 
524 1.55885e+09 0.026876 
525 1.55885e+09 0.030470 
526 1.55885e+09 0.029241 
527 1.55885e+09 0.030929 
528 1.55885e+09 0.025298 
529 1.55885e+09 0.027148 
530 1.55885e+09 0.021307 
531 1.55885e+09 0.029944 
532 1.55885e+09 0.030004 
533 1.55885e+09 0.031656 
534 1.55885e+09 0.025276 
535 1.55885e+09 0.026412 
536 1.55885e+09 0.025198 
537 1.55885e+09 0.021095 
538 1.55885e+09 0.030087 
539 1.55885e+09 0.029555 
540 1.55885e+09 0.031577 
541 1.55885e+09 0.024875 
542 1.55885e+09 0.026218 
543 1.55885e+09 0.025024 
544 1.55885e+09 0.026639 
545 1.55885e+09 0.030110 
546 1.55885e+09 0.029139 
547 1.55885e+09 0.030831 
548 1.55885e+09 0.025000 
549 1.55885e+09 0.025000 
550 1.55885e+09 0.029700 
551 1.55885e+09 0.025011 
552 1.55885e+09 0.025012 
553 1.55885e+09 0.029426 
554 1.55885e+09 0.025022 
555 1.55885e+09 0.023854 
556 1.55885e+09 0.026566 
557 1.55885e+09 0.028747 
558 1.55885e+09 0.028185 
559 1.55885e+09 0.030357 
560 1.55885e+09 0.024853 
561 1.55885e+09 0.022883 
562 1.55885e+09 0.019884 
563 1.55885e+09 0.030298 
564 1.55885e+09 0.027256 
565 1.55885e+09 0.030601 
566 1.55885e+09 0.022732 
567 1.55885e+09 0.027036 
568 1.55885e+09 0.025272 
569 1.55885e+09 0.030109 
570 1.55885e+09 0.021310 
571 1.55885e+09 0.030747 
572 1.55885e+09 0.029003 
573 1.55885e+09 0.032726 
574 1.55885e+09 0.026062 
575 1.55885e+09 0.025052 
576 1.55885e+09 0.026850 
577 1.55885e+09 0.029164 
578 1.55885e+09 0.030634 
579 1.55885e+09 0.024577 
580 1.55885e+09 0.024999 
581 1.55885e+09 0.025000 
582 1.55885e+09 0.029162 
583 1.55885e+09 0.025003 
584 1.55885e+09 0.025003 
585 1.55885e+09 0.029694 
586 1.55885e+09 0.024922 
587 1.55885e+09 0.023429 
588 1.55885e+09 0.030247 
589 1.55885e+09 0.020119 
590 1.55885e+09 0.027653 
591 1.55885e+09 0.030655 
592 1.55885e+09 0.023099 
593 1.55885e+09 0.024964 
594 1.55885e+09 0.023320 
595 1.55885e+09 0.026386 
596 1.55885e+09 0.028437 
597 1.55885e+09 0.027929 
598 1.55885e+09 0.030228 
599 1.55885e+09 0.023228 
600 1.55885e+09 0.025002 
601 1.55885e+09 0.026373 
602 1.55885e+09 0.028372 
603 1.55885e+09 0.027890 
604 1.55885e+09 0.030211 
605 1.55885e+09 0.023580 
606 1.55885e+09 0.024895 
607 1.55885e+09 0.030279 
608 1.55885e+09 0.020138 
609 1.55885e+09 0.027736 
610 1.55885e+09 0.030807 
611 1.55885e+09 0.023179 
612 1.55885e+09 0.024997 
613 1.55885e+09 0.025001 
614 1.55885e+09 0.029435 
615 1.55885e+09 0.025003 
616 1.55885e+09 0.025003 
617 1.55885e+09 0.029693 
618 1.55885e+09 0.025322 
619 1.55885e+09 0.027044 
620 1.55885e+09 0.030058 
621 1.55885e+09 0.021341 
622 1.55885e+09 0.029993 
623 1.55885e+09 0.031706 
624 1.55885e+09 0.025230 
625 1.55885e+09 0.025022 
626 1.55885e+09 0.026033 
627 1.55885e+09 0.026666 
628 1.55885e+09 0.030023 
629 1.55885e+09 0.029054 
630 1.55885e+09 0.030810 
631 1.55885e+09 0.022756 
632 1.55885e+09 0.024869 
633 1.55885e+09 0.030355 
634 1.55885e+09 0.027774 
635 1.55885e+09 0.019787 
636 1.55885e+09 0.026618 
637 1.55885e+09 0.031778 
638 1.55885e+09 0.023968 
639 1.55885e+09 0.025004 
640 1.55885e+09 0.026769 
641 1.55885e+09 0.028138 
642 1.55885e+09 0.030137 
643 1.55885e+09 0.023517 
644 1.55885e+09 0.025010 
645 1.55885e+09 0.025007 
646 1.55885e+09 0.029151 
647 1.55885e+09 0.025000 
648 1.55885e+09 0.025000 
649 1.55885e+09 0.029699 
650 1.55885e+09 0.025056 
651 1.55885e+09 0.026036 
652 1.55885e+09 0.029971 
653 1.55885e+09 0.020864 
654 1.55885e+09 0.029229 
655 1.55885e+09 0.031403 
656 1.55885e+09 0.024648 
657 1.55885e+09 0.025142 
658 1.55885e+09 0.026660 
659 1.55885e+09 0.026831 
660 1.55885e+09 0.030356 
661 1.55885e+09 0.029386 
662 1.55885e+09 0.030896 
663 1.55885e+09 0.027521 
664 1.55885e+09 0.025217 
665 1.55885e+09 0.026846 
666 1.55885e+09 0.030796 
667 1.55885e+09 0.029787 
668 1.55885e+09 0.031005 
669 1.55885e+09 0.026668 
670 1.55885e+09 0.025257 
671 1.55885e+09 0.030088 
672 1.55885e+09 0.021208 
673 1.55885e+09 0.029760 
674 1.55885e+09 0.031623 
675 1.55885e+09 0.025025 
676 1.55885e+09 0.025002 
677 1.55885e+09 0.025001 
678 1.55885e+09 0.029427 
679 1.55885e+09 0.025002 
680 1.55885e+09 0.025001 
681 1.55885e+09 0.029702 
682 1.55885e+09 0.024899 
683 1.55885e+09 0.023124 
684 1.55885e+09 0.030243 
685 1.55885e+09 0.020003 
686 1.55885e+09 0.027450 
687 1.55885e+09 0.030557 
688 1.55885e+09 0.022903 
689 1.55885e+09 0.024987 
690 1.55885e+09 0.023428 
691 1.55885e+09 0.026396 
692 1.55885e+09 0.028514 
693 1.55885e+09 0.027985 
694 1.55885e+09 0.030196 
695 1.55885e+09 0.026487 
696 1.55885e+09 0.025188 
697 1.55885e+09 0.029999 
698 1.55885e+09 0.029584 
699 1.55885e+09 0.031502 
700 1.55885e+09 0.024907 
701 1.55885e+09 0.021091 
702 1.55885e+09 0.026719 
703 1.55885e+09 0.025123 
704 1.55885e+09 0.026785 
705 1.55885e+09 0.030376 
706 1.55885e+09 0.029411 
707 1.55885e+09 0.030892 
708 1.55885e+09 0.025007 
709 1.55885e+09 0.025004 
710 1.55885e+09 0.029701 
711 1.55885e+09 0.025008 
712 1.55885e+09 0.025008 
713 1.55885e+09 0.029428 
714 1.55885e+09 0.024969 
715 1.55885e+09 0.023125 
716 1.55885e+09 0.026323 
717 1.55885e+09 0.028311 
718 1.55885e+09 0.027828 
719 1.55885e+09 0.030188 
720 1.55885e+09 0.024933 
721 1.55885e+09 0.023142 
722 1.55885e+09 0.026519 
723 1.55885e+09 0.027659 
724 1.55885e+09 0.029921 
725 1.55885e+09 0.023096 
726 1.55885e+09 0.023565 
727 1.55885e+09 0.024900 
728 1.55885e+09 0.030276 
729 1.55885e+09 0.027717 
730 1.55885e+09 0.030809 
731 1.55885e+09 0.023170 
732 1.55885e+09 0.020129 
733 1.55885e+09 0.023568 
734 1.55885e+09 0.024930 
735 1.55885e+09 0.030344 
736 1.55885e+09 0.028370 
737 1.55885e+09 0.027078 
738 1.55885e+09 0.031982 
739 1.55885e+09 0.020097 
740 1.55885e+09 0.025002 
741 1.55885e+09 0.025002 
742 1.55885e+09 0.029696 
743 1.55885e+09 0.025002 
744 1.55885e+09 0.025001 
745 1.55885e+09 0.029160 
746 1.55885e+09 0.025110 
747 1.55885e+09 0.026590 
748 1.55885e+09 0.026792 
749 1.55885e+09 0.030322 
750 1.55885e+09 0.029342 
751 1.55885e+09 0.030886 
752 1.55885e+09 0.025166 
753 1.55885e+09 0.026360 
754 1.55885e+09 0.030071 
755 1.55885e+09 0.029507 
756 1.55885e+09 0.031565 
757 1.55885e+09 0.024843 
758 1.55885e+09 0.021055 
759 1.55885e+09 0.023133 
760 1.55885e+09 0.024893 
761 1.55885e+09 0.030249 
762 1.55885e+09 0.027454 
763 1.55885e+09 0.030562 
764 1.55885e+09 0.022913 
765 1.55885e+09 0.020011 
766 1.55885e+09 0.023392 
767 1.55885e+09 0.024980 
768 1.55885e+09 0.026532 
769 1.55885e+09 0.023923 
770 1.55885e+09 0.026174 
771 1.55885e+09 0.029983 
772 1.55885e+09 0.025002 
773 1.55885e+09 0.025005 
774 1.55885e+09 0.029701 
775 1.55885e+09 0.025003 
776 1.55885e+09 0.024998 
777 1.55885e+09 0.029139 
778 1.55885e+09 0.025237 
779 1.55885e+09 0.027542 
780 1.55885e+09 0.026851 
781 1.55885e+09 0.030814 
782 1.55885e+09 0.029781 
783 1.55885e+09 0.030979 
784 1.55885e+09 0.025208 
785 1.55885e+09 0.026885 
786 1.55885e+09 0.027047 
787 1.55885e+09 0.029649 
788 1.55885e+09 0.030756 
789 1.55885e+09 0.024943 
790 1.55885e+09 0.026070 
791 1.55885e+09 0.025075 
792 1.55885e+09 0.029974 
793 1.55885e+09 0.029254 
794 1.55885e+09 0.031422 
795 1.55885e+09 0.024664 
796 1.55885e+09 0.020881 
797 1.55885e+09 0.026505 
798 1.55885e+09 0.025180 
799 1.55885e+09 0.030152 
800 1.55885e+09 0.029498 
801 1.55885e+09 0.027946 
802 1.55885e+09 0.032564 
803 1.55885e+09 0.021112 
804 1.55885e+09 0.025004 
805 1.55885e+09 0.025008 
806 1.55885e+09 0.030442 
807 1.55885e+09 0.025000 
808 1.55885e+09 0.025000 
809 1.55885e+09 0.029161 
810 1.55885e+09 0.024975 
811 1.55885e+09 0.022481 
812 1.55885e+09 0.026170 
813 1.55885e+09 0.027862 
814 1.55885e+09 0.027273 
815 1.55885e+09 0.030016 
816 1.55885e+09 0.024984 
817 1.55885e+09 0.024007 
818 1.55885e+09 0.030314 
819 1.55885e+09 0.028062 
820 1.55885e+09 0.030937 
821 1.55885e+09 0.023456 
822 1.55885e+09 0.020334 
823 1.55885e+09 0.023520 
824 1.55885e+09 0.024937 
825 1.55885e+09 0.030354 
826 1.55885e+09 0.028309 
827 1.55885e+09 0.027179 
828 1.55885e+09 0.031958 
829 1.55885e+09 0.020086 
830 1.55885e+09 0.023394 
831 1.55885e+09 0.024949 
832 1.55885e+09 0.026599 
833 1.55885e+09 0.027804 
834 1.55885e+09 0.029988 
835 1.55885e+09 0.023220 
836 1.55885e+09 0.025001 
837 1.55885e+09 0.025001 
838 1.55885e+09 0.028676 
839 1.55885e+09 0.025003 
840 1.55885e+09 0.025004 
841 1.55885e+09 0.030438 
842 1.55885e+09 0.025140 
843 1.55885e+09 0.026572 
844 1.55885e+09 0.026964 
845 1.55885e+09 0.029469 
846 1.55885e+09 0.030711 
847 1.55885e+09 0.024810 
848 1.55885e+09 0.025107 
849 1.55885e+09 0.026567 
850 1.55885e+09 0.026796 
851 1.55885e+09 0.030264 
852 1.55885e+09 0.029041 
853 1.55885e+09 0.030884 
854 1.55885e+09 0.026388 
855 1.55885e+09 0.025134 
856 1.55885e+09 0.030123 
857 1.55885e+09 0.030297 
858 1.55885e+09 0.028712 
859 1.55885e+09 0.032604 
860 1.55885e+09 0.021041 
861 1.55885e+09 0.026442 
862 1.55885e+09 0.025191 
863 1.55885e+09 0.030078 
864 1.55885e+09 0.029575 
865 1.55885e+09 0.031582 
866 1.55885e+09 0.024890 
867 1.55885e+09 0.021098 
868 1.55885e+09 0.025005 
869 1.55885e+09 0.025004 
870 1.55885e+09 0.028671 
871 1.55885e+09 0.025002 
872 1.55885e+09 0.025001 
873 1.55885e+09 0.030457 
874 1.55885e+09 0.024908 
875 1.55885e+09 0.023509 
876 1.55885e+09 0.030290 
877 1.55885e+09 0.027683 
878 1.55885e+09 0.030795 
879 1.55885e+09 0.023133 
880 1.55885e+09 0.020115 
881 1.55885e+09 0.024984 
882 1.55885e+09 0.023411 
883 1.55885e+09 0.026562 
884 1.55885e+09 0.023928 
885 1.55885e+09 0.026132 
886 1.55885e+09 0.030056 
887 1.55885e+09 0.026468 
888 1.55885e+09 0.025161 
889 1.55885e+09 0.030130 
890 1.55885e+09 0.030351 
891 1.55885e+09 0.028768 
892 1.55885e+09 0.032619 
893 1.55885e+09 0.021082 
894 1.55885e+09 0.026514 
895 1.55885e+09 0.025141 
896 1.55885e+09 0.026968 
897 1.55885e+09 0.029442 
898 1.55885e+09 0.030704 
899 1.55885e+09 0.024780 
900 1.55885e+09 0.025003 
901 1.55885e+09 0.025004 
902 1.55885e+09 0.028671 
903 1.55885e+09 0.025001 
904 1.55885e+09 0.025001 
905 1.55885e+09 0.030458 
906 1.55885e+09 0.024955 
907 1.55885e+09 0.023465 
908 1.55885e+09 0.026605 
909 1.55885e+09 0.027836 
910 1.55885e+09 0.030009 
911 1.55885e+09 0.023257 
912 1.55885e+09 0.024973 
913 1.55885e+09 0.023450 
914 1.55885e+09 0.026553 
915 1.55885e+09 0.023955 
916 1.55885e+09 0.026146 
917 1.55885e+09 0.030061 
918 1.55885e+09 0.023296 
919 1.55885e+09 0.024910 
920 1.55885e+09 0.030339 
921 1.55885e+09 0.028150 
922 1.55885e+09 0.027035 
923 1.55885e+09 0.031912 
924 1.55885e+09 0.019984 
925 1.55885e+09 0.023334 
926 1.55885e+09 0.024880 
927 1.55885e+09 0.030271 
928 1.55885e+09 0.027541 
929 1.55885e+09 0.030745 
930 1.55885e+09 0.023020 
931 1.55885e+09 0.020033 
932 1.55885e+09 0.025000 
933 1.55885e+09 0.025001 
934 1.55885e+09 0.028672 
935 1.55885e+09 0.025006 
936 1.55885e+09 0.025001 
937 1.55885e+09 0.030445 
938 1.55885e+09 0.025175 
939 1.55885e+09 0.026454 
940 1.55885e+09 0.029990 
941 1.55885e+09 0.029560 
942 1.55885e+09 0.031488 
943 1.55885e+09 0.024889 
944 1.55885e+09 0.021069 
945 1.55885e+09 0.025122 
946 1.55885e+09 0.026670 
947 1.55885e+09 0.026859 
948 1.55885e+09 0.025831 
949 1.55885e+09 0.027660 
950 1.55885e+09 0.030586 
951 1.55885e+09 0.025978 
952 1.55885e+09 0.025053 
953 1.55885e+09 0.030116 
954 1.55885e+09 0.030012 
955 1.55885e+09 0.028441 
956 1.55885e+09 0.032541 
957 1.55885e+09 0.020852 
958 1.55885e+09 0.027357 
959 1.55885e+09 0.025281 
960 1.55885e+09 0.027098 
961 1.55885e+09 0.029912 
962 1.55885e+09 0.030832 
963 1.55885e+09 0.025154 
964 1.55885e+09 0.025005 
965 1.55885e+09 0.025005 
966 1.55885e+09 0.028670 
967 1.55885e+09 0.025001 
968 1.55885e+09 0.024997 
969 1.55885e+09 0.030459 
970 1.55885e+09 0.024944 
971 1.55885e+09 0.023449 
972 1.55885e+09 0.026606 
973 1.55885e+09 0.027836 
974 1.55885e+09 0.029997 
975 1.55885e+09 0.023249 
976 1.55885e+09 0.024983 
977 1.55885e+09 0.023217 
978 1.55885e+09 0.026496 
979 1.55885e+09 0.023819 
980 1.55885e+09 0.026038 
981 1.55885e+09 0.029951 
982 1.55885e+09 0.023463 
983 1.55885e+09 0.024925 
984 1.55885e+09 0.030358 
985 1.55885e+09 0.027376 
986 1.55885e+09 0.026339 
987 1.55885e+09 0.031862 
988 1.55885e+09 0.020059 
989 1.55885e+09 0.023406 
990 1.55885e+09 0.024926 
991 1.55885e+09 0.030240 
992 1.55885e+09 0.027651 
993 1.55885e+09 0.030649 
994 1.55885e+09 0.023088 
995 1.55885e+09 0.020110 
996 1.55885e+09 0.025001 
997 1.55885e+09 0.025001 
998 1.55885e+09 0.028673 
999 1.55885e+09 0.025002 
1000 1.55885e+09 0.025007 
1001 1.55885e+09 0.030452 
1002 1.55885e+09 0.025061 
1003 1.55885e+09 0.025973 
1004 1.55885e+09 0.030052 
1005 1.55885e+09 0.029211 
1006 1.55885e+09 0.031484 
1007 1.55885e+09 0.024616 
1008 1.55885e+09 0.020873 
1009 1.55885e+09 0.025231 
1010 1.55885e+09 0.027336 
1011 1.55885e+09 0.026995 
1012 1.55885e+09 0.026192 
1013 1.55885e+09 0.028013 
1014 1.55885e+09 0.030704 
1015 1.55885e+09 0.023943 
1016 1.55885e+09 0.024995 
1017 1.55885e+09 0.030382 
1018 1.55885e+09 0.027736 
1019 1.55885e+09 0.026651 
1020 1.55885e+09 0.031980 
1021 1.55885e+09 0.020275 
1022 1.55885e+09 0.022610 
1023 1.55885e+09 0.024918 
1024 1.55885e+09 0.026385 
1025 1.55885e+09 0.027376 
1026 1.55885e+09 0.029761 
1027 1.55885e+09 0.022802 
1028 1.55885e+09 0.024999 
1029 1.55885e+09 0.024999 
1030 1.55885e+09 0.028679 
1031 1.55885e+09 0.025008 
1032 1.55885e+09 0.025010 
1033 1.55885e+09 0.030449 
1034 1.55885e+09 0.025155 
1035 1.55885e+09 0.026567 
1036 1.55885e+09 0.026986 
1037 1.55885e+09 0.029474 
1038 1.55885e+09 0.030709 
1039 1.55885e+09 0.024804 
1040 1.55885e+09 0.025043 
1041 1.55885e+09 0.026238 
1042 1.55885e+09 0.026746 
1043 1.55885e+09 0.025607 
1044 1.55885e+09 0.027409 
1045 1.55885e+09 0.030553 
1046 1.55885e+09 0.026711 
1047 1.55885e+09 0.025208 
1048 1.55885e+09 0.030145 
1049 1.55885e+09 0.029631 
1050 1.55885e+09 0.028143 
1051 1.55885e+09 0.032587 
1052 1.55885e+09 0.021201 
1053 1.55885e+09 0.027161 
1054 1.55885e+09 0.025297 
1055 1.55885e+09 0.029945 
1056 1.55885e+09 0.030009 
1057 1.55885e+09 0.031659 
1058 1.55885e+09 0.025271 
1059 1.55885e+09 0.021312 
1060 1.55885e+09 0.025002 
1061 1.55885e+09 0.025006 
1062 1.55885e+09 0.028674 
1063 1.55885e+09 0.025001 
1064 1.55885e+09 0.025006 
1065 1.55885e+09 0.030457 
1066 1.55885e+09 0.024940 
1067 1.55885e+09 0.023602 
1068 1.55885e+09 0.030241 
1069 1.55885e+09 0.027787 
1070 1.55885e+09 0.030705 
1071 1.55885e+09 0.023212 
1072 1.55885e+09 0.020182 
1073 1.55885e+09 0.024972 
1074 1.55885e+09 0.022865 
1075 1.55885e+09 0.026401 
1076 1.55885e+09 0.023592 
1077 1.55885e+09 0.025872 
1078 1.55885e+09 0.029869 
1079 1.55885e+09 0.024996 
1080 1.55885e+09 0.020872 
1081 1.55885e+09 0.024901 
1082 1.55885e+09 0.024996 
1083 1.55885e+09 0.020556 
1084 1.55885e+09 0.026891 
1085 1.55885e+09 0.025005 
1086 1.55885e+09 0.026957 
1087 1.55885e+09 0.020444 
1088 1.55885e+09 0.025002 
1089 1.55885e+09 0.020408 
1090 1.55885e+09 0.026935 
1091 1.55885e+09 0.024996 
1092 1.55885e+09 0.020408 
1093 1.55885e+09 0.026929 
1094 1.55885e+09 0.024996 
1095 1.55885e+09 0.020408 
1096 1.55885e+09 0.026919 
1097 1.55885e+09 0.025005 
1098 1.55885e+09 0.020408 
1099 1.55885e+09 0.026919 
1100 1.55885e+09 0.024996 
1101 1.55885e+09 0.020400 
1102 1.55885e+09 0.026920 
1103 1.55885e+09 0.025002 
1104 1.55885e+09 0.020400 
1105 1.55885e+09 0.026920 
1106 1.55885e+09 0.025005 
1107 1.55885e+09 0.020318 
1108 1.55885e+09 0.026930 
1109 1.55885e+09 0.021174 
1110 1.55885e+09 0.026772 
1111 1.55885e+09 0.025005 
1112 1.55885e+09 0.020422 
1113 1.55885e+09 0.024984 
1114 1.55885e+09 0.025002 
1115 1.55885e+09 0.027641 
1116 1.55885e+09 0.020649 
1117 1.55885e+09 0.024996 
1118 1.55885e+09 0.023855 
1119 1.55885e+09 0.026459 
1120 1.55885e+09 0.025005 
1121 1.55885e+09 0.028291 
1122 1.55885e+09 0.021579 
1123 1.55885e+09 0.024996 
1124 1.55885e+09 0.023293 
1125 1.55885e+09 0.023814 
1126 1.55885e+09 0.024996 
1127 1.55885e+09 0.022122 
1128 1.55885e+09 0.022780 
1129 1.55885e+09 0.025002 
1130 1.55885e+09 0.022732 
1131 1.55885e+09 0.023929 
1132 1.55885e+09 0.025005 
1133 1.55885e+09 0.021545 
1134 1.55885e+09 0.024044 
1135 1.55885e+09 0.024996 
1136 1.55885e+09 0.023282 
1137 1.55885e+09 0.021424 
1138 1.55885e+09 0.024996 
1139 1.55885e+09 0.020587 
1140 1.55885e+09 0.019291 
1141 1.55885e+09 0.019853 
1142 1.55885e+09 0.021359 
1143 1.55885e+09 0.024996 
1144 1.55885e+09 0.029950 
1145 1.55885e+09 0.019538 