LAMMPS DATA FILE 

14926 atoms 
33816 bonds 

4 atom types 
33816 bond types 

-2.726277 2.726127 xlo xhi 
-2.729206 2.731586 ylo yhi 
-0.006967 0.006967 zlo zhi 

Bond Coeffs # harmonic 

1 1.55885e+09 0.025001 
2 1.55885e+09 0.025000 
3 1.55885e+09 0.023142 
4 1.55885e+09 0.029239 
5 1.55885e+09 0.017830 
6 1.55885e+09 0.020627 
7 1.55885e+09 0.025001 
8 1.55885e+09 0.025000 
9 1.55885e+09 0.023187 
10 1.55885e+09 0.029256 
11 1.55885e+09 0.017848 
12 1.55885e+09 0.020554 
13 1.55885e+09 0.025000 
14 1.55885e+09 0.025000 
15 1.55885e+09 0.021893 
16 1.55885e+09 0.027039 
17 1.55885e+09 0.017653 
18 1.55885e+09 0.025000 
19 1.55885e+09 0.025000 
20 1.55885e+09 0.021842 
21 1.55885e+09 0.027017 
22 1.55885e+09 0.017773 
23 1.55885e+09 0.025001 
24 1.55885e+09 0.024998 
25 1.55885e+09 0.022883 
26 1.55885e+09 0.027113 
27 1.55885e+09 0.017842 
28 1.55885e+09 0.020630 
29 1.55885e+09 0.025000 
30 1.55885e+09 0.025007 
31 1.55885e+09 0.023116 
32 1.55885e+09 0.029228 
33 1.55885e+09 0.017825 
34 1.55885e+09 0.020670 
35 1.55885e+09 0.025007 
36 1.55885e+09 0.024999 
37 1.55885e+09 0.023199 
38 1.55885e+09 0.027125 
39 1.55885e+09 0.017375 
40 1.55885e+09 0.020310 
41 1.55885e+09 0.025001 
42 1.55885e+09 0.024997 
43 1.55885e+09 0.023218 
44 1.55885e+09 0.027091 
45 1.55885e+09 0.017388 
46 1.55885e+09 0.020273 
47 1.55885e+09 0.025000 
48 1.55885e+09 0.025002 
49 1.55885e+09 0.022898 
50 1.55885e+09 0.027202 
51 1.55885e+09 0.017825 
52 1.55885e+09 0.020612 
53 1.55885e+09 0.025000 
54 1.55885e+09 0.025002 
55 1.55885e+09 0.021681 
56 1.55885e+09 0.022622 
57 1.55885e+09 0.027146 
58 1.55885e+09 0.019003 
59 1.55885e+09 0.025002 
60 1.55885e+09 0.025001 
61 1.55885e+09 0.023283 
62 1.55885e+09 0.027244 
63 1.55885e+09 0.017372 
64 1.55885e+09 0.020151 
65 1.55885e+09 0.025001 
66 1.55885e+09 0.024992 
67 1.55885e+09 0.023283 
68 1.55885e+09 0.027309 
69 1.55885e+09 0.017353 
70 1.55885e+09 0.020170 
71 1.55885e+09 0.024998 
72 1.55885e+09 0.024996 
73 1.55885e+09 0.022881 
74 1.55885e+09 0.027066 
75 1.55885e+09 0.017855 
76 1.55885e+09 0.020639 
77 1.55885e+09 0.025008 
78 1.55885e+09 0.024996 
79 1.55885e+09 0.023141 
80 1.55885e+09 0.029239 
81 1.55885e+09 0.017831 
82 1.55885e+09 0.020617 
83 1.55885e+09 0.024998 
84 1.55885e+09 0.025008 
85 1.55885e+09 0.021662 
86 1.55885e+09 0.022584 
87 1.55885e+09 0.027125 
88 1.55885e+09 0.019092 
89 1.55885e+09 0.024998 
90 1.55885e+09 0.024998 
91 1.55885e+09 0.023192 
92 1.55885e+09 0.027089 
93 1.55885e+09 0.017382 
94 1.55885e+09 0.020310 
95 1.55885e+09 0.025003 
96 1.55885e+09 0.025000 
97 1.55885e+09 0.023480 
98 1.55885e+09 0.029139 
99 1.55885e+09 0.017366 
100 1.55885e+09 0.020265 
101 1.55885e+09 0.025003 
102 1.55885e+09 0.024999 
103 1.55885e+09 0.021674 
104 1.55885e+09 0.022582 
105 1.55885e+09 0.027378 
106 1.55885e+09 0.019104 
107 1.55885e+09 0.024999 
108 1.55885e+09 0.024993 
109 1.55885e+09 0.023216 
110 1.55885e+09 0.027109 
111 1.55885e+09 0.017384 
112 1.55885e+09 0.020285 
113 1.55885e+09 0.025003 
114 1.55885e+09 0.025000 
115 1.55885e+09 0.021831 
116 1.55885e+09 0.026873 
117 1.55885e+09 0.017827 
118 1.55885e+09 0.025000 
119 1.55885e+09 0.025000 
120 1.55885e+09 0.022908 
121 1.55885e+09 0.027198 
122 1.55885e+09 0.017825 
123 1.55885e+09 0.021154 
124 1.55885e+09 0.025000 
125 1.55885e+09 0.025000 
126 1.55885e+09 0.022913 
127 1.55885e+09 0.027184 
128 1.55885e+09 0.017831 
129 1.55885e+09 0.021139 
130 1.55885e+09 0.025000 
131 1.55885e+09 0.025000 
132 1.55885e+09 0.021868 
133 1.55885e+09 0.026995 
134 1.55885e+09 0.017616 
135 1.55885e+09 0.025000 
136 1.55885e+09 0.025000 
137 1.55885e+09 0.023270 
138 1.55885e+09 0.027263 
139 1.55885e+09 0.017358 
140 1.55885e+09 0.020188 
141 1.55885e+09 0.025000 
142 1.55885e+09 0.025000 
143 1.55885e+09 0.022870 
144 1.55885e+09 0.027081 
145 1.55885e+09 0.017847 
146 1.55885e+09 0.021221 
147 1.55885e+09 0.025000 
148 1.55885e+09 0.025000 
149 1.55885e+09 0.022869 
150 1.55885e+09 0.027107 
151 1.55885e+09 0.017837 
152 1.55885e+09 0.021228 
153 1.55885e+09 0.025000 
154 1.55885e+09 0.025000 
155 1.55885e+09 0.021803 
156 1.55885e+09 0.026875 
157 1.55885e+09 0.017714 
158 1.55885e+09 0.025000 
159 1.55885e+09 0.025000 
160 1.55885e+09 0.021803 
161 1.55885e+09 0.026852 
162 1.55885e+09 0.017720 
163 1.55885e+09 0.024997 
164 1.55885e+09 0.025001 
165 1.55885e+09 0.022923 
166 1.55885e+09 0.027247 
167 1.55885e+09 0.017815 
168 1.55885e+09 0.021133 
169 1.55885e+09 0.024997 
170 1.55885e+09 0.024999 
171 1.55885e+09 0.022896 
172 1.55885e+09 0.027188 
173 1.55885e+09 0.017831 
174 1.55885e+09 0.020623 
175 1.55885e+09 0.025001 
176 1.55885e+09 0.024997 
177 1.55885e+09 0.023163 
178 1.55885e+09 0.029249 
179 1.55885e+09 0.017841 
180 1.55885e+09 0.020583 
181 1.55885e+09 0.025007 
182 1.55885e+09 0.025001 
183 1.55885e+09 0.021877 
184 1.55885e+09 0.027007 
185 1.55885e+09 0.017598 
186 1.55885e+09 0.024997 
187 1.55885e+09 0.025001 
188 1.55885e+09 0.022112 
189 1.55885e+09 0.029160 
190 1.55885e+09 0.017681 
191 1.55885e+09 0.025007 
192 1.55885e+09 0.025001 
193 1.55885e+09 0.022926 
194 1.55885e+09 0.027219 
195 1.55885e+09 0.017819 
196 1.55885e+09 0.021111 
197 1.55885e+09 0.025001 
198 1.55885e+09 0.024997 
199 1.55885e+09 0.023279 
200 1.55885e+09 0.027291 
201 1.55885e+09 0.017352 
202 1.55885e+09 0.020186 
203 1.55885e+09 0.025007 
204 1.55885e+09 0.025001 
205 1.55885e+09 0.021838 
206 1.55885e+09 0.026970 
207 1.55885e+09 0.017799 
208 1.55885e+09 0.025000 
209 1.55885e+09 0.025000 
210 1.55885e+09 0.022861 
211 1.55885e+09 0.027090 
212 1.55885e+09 0.017841 
213 1.55885e+09 0.021242 
214 1.55885e+09 0.024999 
215 1.55885e+09 0.025000 
216 1.55885e+09 0.021683 
217 1.55885e+09 0.022587 
218 1.55885e+09 0.027362 
219 1.55885e+09 0.019078 
220 1.55885e+09 0.025000 
221 1.55885e+09 0.025000 
222 1.55885e+09 0.021818 
223 1.55885e+09 0.026868 
224 1.55885e+09 0.017699 
225 1.55885e+09 0.025000 
226 1.55885e+09 0.025000 
227 1.55885e+09 0.023220 
228 1.55885e+09 0.027152 
229 1.55885e+09 0.017372 
230 1.55885e+09 0.020279 
231 1.55885e+09 0.024999 
232 1.55885e+09 0.025000 
233 1.55885e+09 0.021580 
234 1.55885e+09 0.022653 
235 1.55885e+09 0.027478 
236 1.55885e+09 0.018966 
237 1.55885e+09 0.025000 
238 1.55885e+09 0.025000 
239 1.55885e+09 0.021581 
240 1.55885e+09 0.022644 
241 1.55885e+09 0.027466 
242 1.55885e+09 0.018982 
243 1.55885e+09 0.024999 
244 1.55885e+09 0.025000 
245 1.55885e+09 0.021569 
246 1.55885e+09 0.026930 
247 1.55885e+09 0.017667 
248 1.55885e+09 0.024999 
249 1.55885e+09 0.024999 
250 1.55885e+09 0.021580 
251 1.55885e+09 0.026926 
252 1.55885e+09 0.017655 
253 1.55885e+09 0.025005 
254 1.55885e+09 0.025001 
255 1.55885e+09 0.021603 
256 1.55885e+09 0.022570 
257 1.55885e+09 0.027312 
258 1.55885e+09 0.019087 
259 1.55885e+09 0.024995 
260 1.55885e+09 0.025000 
261 1.55885e+09 0.021687 
262 1.55885e+09 0.022603 
263 1.55885e+09 0.027376 
264 1.55885e+09 0.019032 
265 1.55885e+09 0.025000 
266 1.55885e+09 0.024995 
267 1.55885e+09 0.023122 
268 1.55885e+09 0.029055 
269 1.55885e+09 0.017836 
270 1.55885e+09 0.020656 
271 1.55885e+09 0.024995 
272 1.55885e+09 0.025001 
273 1.55885e+09 0.021501 
274 1.55885e+09 0.026820 
275 1.55885e+09 0.017768 
276 1.55885e+09 0.025003 
277 1.55885e+09 0.025005 
278 1.55885e+09 0.022040 
279 1.55885e+09 0.029136 
280 1.55885e+09 0.017752 
281 1.55885e+09 0.025003 
282 1.55885e+09 0.025003 
283 1.55885e+09 0.022841 
284 1.55885e+09 0.027046 
285 1.55885e+09 0.017852 
286 1.55885e+09 0.021270 
287 1.55885e+09 0.024993 
288 1.55885e+09 0.024995 
289 1.55885e+09 0.021825 
290 1.55885e+09 0.026845 
291 1.55885e+09 0.017839 
292 1.55885e+09 0.025005 
293 1.55885e+09 0.025005 
294 1.55885e+09 0.021110 
295 1.55885e+09 0.029150 
296 1.55885e+09 0.017860 
297 1.55885e+09 0.025000 
298 1.55885e+09 0.025004 
299 1.55885e+09 0.021590 
300 1.55885e+09 0.022651 
301 1.55885e+09 0.027453 
302 1.55885e+09 0.018938 
303 1.55885e+09 0.025000 
304 1.55885e+09 0.024994 
305 1.55885e+09 0.021574 
306 1.55885e+09 0.022661 
307 1.55885e+09 0.027507 
308 1.55885e+09 0.018956 
309 1.55885e+09 0.024994 
310 1.55885e+09 0.025000 
311 1.55885e+09 0.021555 
312 1.55885e+09 0.026934 
313 1.55885e+09 0.017737 
314 1.55885e+09 0.025000 
315 1.55885e+09 0.025004 
316 1.55885e+09 0.023506 
317 1.55885e+09 0.029149 
318 1.55885e+09 0.017370 
319 1.55885e+09 0.020208 
320 1.55885e+09 0.024999 
321 1.55885e+09 0.025005 
322 1.55885e+09 0.021587 
323 1.55885e+09 0.022575 
324 1.55885e+09 0.027333 
325 1.55885e+09 0.019104 
326 1.55885e+09 0.025000 
327 1.55885e+09 0.025005 
328 1.55885e+09 0.021612 
329 1.55885e+09 0.022579 
330 1.55885e+09 0.027309 
331 1.55885e+09 0.019066 
332 1.55885e+09 0.024995 
333 1.55885e+09 0.025000 
334 1.55885e+09 0.023239 
335 1.55885e+09 0.027166 
336 1.55885e+09 0.017373 
337 1.55885e+09 0.020239 
338 1.55885e+09 0.025000 
339 1.55885e+09 0.024995 
340 1.55885e+09 0.023485 
341 1.55885e+09 0.029140 
342 1.55885e+09 0.017365 
343 1.55885e+09 0.020276 
344 1.55885e+09 0.025001 
345 1.55885e+09 0.025001 
346 1.55885e+09 0.021580 
347 1.55885e+09 0.022670 
348 1.55885e+09 0.027510 
349 1.55885e+09 0.018936 
350 1.55885e+09 0.025001 
351 1.55885e+09 0.025001 
352 1.55885e+09 0.021569 
353 1.55885e+09 0.022643 
354 1.55885e+09 0.027488 
355 1.55885e+09 0.019000 
356 1.55885e+09 0.025001 
357 1.55885e+09 0.025001 
358 1.55885e+09 0.021115 
359 1.55885e+09 0.029153 
360 1.55885e+09 0.017858 
361 1.55885e+09 0.025001 
362 1.55885e+09 0.025001 
363 1.55885e+09 0.023530 
364 1.55885e+09 0.029159 
365 1.55885e+09 0.017381 
366 1.55885e+09 0.020169 
367 1.55885e+09 0.028676 
368 1.55885e+09 0.029636 
369 1.55885e+09 0.026990 
370 1.55885e+09 0.028943 
371 1.55885e+09 0.030514 
372 1.55885e+09 0.024294 
373 1.55885e+09 0.029640 
374 1.55885e+09 0.020751 
375 1.55885e+09 0.030115 
376 1.55885e+09 0.025093 
377 1.55885e+09 0.028815 
378 1.55885e+09 0.031386 
379 1.55885e+09 0.020270 
380 1.55885e+09 0.030212 
381 1.55885e+09 0.024523 
382 1.55885e+09 0.026528 
383 1.55885e+09 0.031290 
384 1.55885e+09 0.029436 
385 1.55885e+09 0.026801 
386 1.55885e+09 0.028503 
387 1.55885e+09 0.030437 
388 1.55885e+09 0.023923 
389 1.55885e+09 0.028678 
390 1.55885e+09 0.029634 
391 1.55885e+09 0.026775 
392 1.55885e+09 0.028437 
393 1.55885e+09 0.030426 
394 1.55885e+09 0.023882 
395 1.55885e+09 0.029578 
396 1.55885e+09 0.020379 
397 1.55885e+09 0.030205 
398 1.55885e+09 0.024651 
399 1.55885e+09 0.028412 
400 1.55885e+09 0.031319 
401 1.55885e+09 0.020798 
402 1.55885e+09 0.030118 
403 1.55885e+09 0.025136 
404 1.55885e+09 0.028867 
405 1.55885e+09 0.031383 
406 1.55885e+09 0.028674 
407 1.55885e+09 0.026940 
408 1.55885e+09 0.028844 
409 1.55885e+09 0.030511 
410 1.55885e+09 0.024224 
411 1.55885e+09 0.028682 
412 1.55885e+09 0.029636 
413 1.55885e+09 0.026919 
414 1.55885e+09 0.028802 
415 1.55885e+09 0.030506 
416 1.55885e+09 0.024197 
417 1.55885e+09 0.030441 
418 1.55885e+09 0.020893 
419 1.55885e+09 0.030110 
420 1.55885e+09 0.025231 
421 1.55885e+09 0.028954 
422 1.55885e+09 0.031395 
423 1.55885e+09 0.020440 
424 1.55885e+09 0.030199 
425 1.55885e+09 0.024719 
426 1.55885e+09 0.028490 
427 1.55885e+09 0.031321 
428 1.55885e+09 0.028679 
429 1.55885e+09 0.026700 
430 1.55885e+09 0.028335 
431 1.55885e+09 0.030406 
432 1.55885e+09 0.023789 
433 1.55885e+09 0.028682 
434 1.55885e+09 0.029633 
435 1.55885e+09 0.028673 
436 1.55885e+09 0.029633 
437 1.55885e+09 0.026700 
438 1.55885e+09 0.028333 
439 1.55885e+09 0.030392 
440 1.55885e+09 0.023778 
441 1.55885e+09 0.030445 
442 1.55885e+09 0.020432 
443 1.55885e+09 0.030194 
444 1.55885e+09 0.024711 
445 1.55885e+09 0.026754 
446 1.55885e+09 0.031310 
447 1.55885e+09 0.020893 
448 1.55885e+09 0.030109 
449 1.55885e+09 0.025225 
450 1.55885e+09 0.028958 
451 1.55885e+09 0.031395 
452 1.55885e+09 0.029134 
453 1.55885e+09 0.026905 
454 1.55885e+09 0.028800 
455 1.55885e+09 0.030504 
456 1.55885e+09 0.024190 
457 1.55885e+09 0.028682 
458 1.55885e+09 0.029637 
459 1.55885e+09 0.026946 
460 1.55885e+09 0.028848 
461 1.55885e+09 0.030511 
462 1.55885e+09 0.024228 
463 1.55885e+09 0.029569 
464 1.55885e+09 0.020796 
465 1.55885e+09 0.030113 
466 1.55885e+09 0.025138 
467 1.55885e+09 0.028864 
468 1.55885e+09 0.031384 
469 1.55885e+09 0.020377 
470 1.55885e+09 0.030201 
471 1.55885e+09 0.024656 
472 1.55885e+09 0.028424 
473 1.55885e+09 0.031315 
474 1.55885e+09 0.029433 
475 1.55885e+09 0.026757 
476 1.55885e+09 0.028446 
477 1.55885e+09 0.030422 
478 1.55885e+09 0.023882 
479 1.55885e+09 0.029178 
480 1.55885e+09 0.030438 
481 1.55885e+09 0.026800 
482 1.55885e+09 0.028500 
483 1.55885e+09 0.030430 
484 1.55885e+09 0.023920 
485 1.55885e+09 0.029573 
486 1.55885e+09 0.020267 
487 1.55885e+09 0.030225 
488 1.55885e+09 0.024533 
489 1.55885e+09 0.028301 
490 1.55885e+09 0.031311 
491 1.55885e+09 0.020750 
492 1.55885e+09 0.030120 
493 1.55885e+09 0.025089 
494 1.55885e+09 0.028809 
495 1.55885e+09 0.031386 
496 1.55885e+09 0.029436 
497 1.55885e+09 0.026994 
498 1.55885e+09 0.028938 
499 1.55885e+09 0.030528 
500 1.55885e+09 0.024292 
501 1.55885e+09 0.028681 
502 1.55885e+09 0.030457 
503 1.55885e+09 0.024665 
504 1.55885e+09 0.024985 
505 1.55885e+09 0.020499 
506 1.55885e+09 0.030152 
507 1.55885e+09 0.028446 
508 1.55885e+09 0.031012 
509 1.55885e+09 0.023853 
510 1.55885e+09 0.024327 
511 1.55885e+09 0.024973 
512 1.55885e+09 0.026510 
513 1.55885e+09 0.029010 
514 1.55885e+09 0.028330 
515 1.55885e+09 0.030463 
516 1.55885e+09 0.025003 
517 1.55885e+09 0.024999 
518 1.55885e+09 0.030446 
519 1.55885e+09 0.025000 
520 1.55885e+09 0.025000 
521 1.55885e+09 0.028679 
522 1.55885e+09 0.025049 
523 1.55885e+09 0.025651 
524 1.55885e+09 0.026726 
525 1.55885e+09 0.029760 
526 1.55885e+09 0.028646 
527 1.55885e+09 0.030728 
528 1.55885e+09 0.025072 
529 1.55885e+09 0.025610 
530 1.55885e+09 0.020785 
531 1.55885e+09 0.030065 
532 1.55885e+09 0.029032 
533 1.55885e+09 0.031274 
534 1.55885e+09 0.024406 
535 1.55885e+09 0.025335 
536 1.55885e+09 0.025034 
537 1.55885e+09 0.020705 
538 1.55885e+09 0.030149 
539 1.55885e+09 0.028849 
540 1.55885e+09 0.031310 
541 1.55885e+09 0.024249 
542 1.55885e+09 0.025335 
543 1.55885e+09 0.024998 
544 1.55885e+09 0.026618 
545 1.55885e+09 0.029610 
546 1.55885e+09 0.028769 
547 1.55885e+09 0.030666 
548 1.55885e+09 0.025000 
549 1.55885e+09 0.025000 
550 1.55885e+09 0.029699 
551 1.55885e+09 0.024998 
552 1.55885e+09 0.025002 
553 1.55885e+09 0.029433 
554 1.55885e+09 0.024997 
555 1.55885e+09 0.024660 
556 1.55885e+09 0.026601 
557 1.55885e+09 0.029230 
558 1.55885e+09 0.028497 
559 1.55885e+09 0.030535 
560 1.55885e+09 0.024932 
561 1.55885e+09 0.024400 
562 1.55885e+09 0.020377 
563 1.55885e+09 0.030203 
564 1.55885e+09 0.028237 
565 1.55885e+09 0.031059 
566 1.55885e+09 0.023687 
567 1.55885e+09 0.025591 
568 1.55885e+09 0.025065 
569 1.55885e+09 0.030209 
570 1.55885e+09 0.020788 
571 1.55885e+09 0.029773 
572 1.55885e+09 0.028173 
573 1.55885e+09 0.032446 
574 1.55885e+09 0.025304 
575 1.55885e+09 0.025011 
576 1.55885e+09 0.026824 
577 1.55885e+09 0.028790 
578 1.55885e+09 0.030464 
579 1.55885e+09 0.024203 
580 1.55885e+09 0.025000 
581 1.55885e+09 0.024997 
582 1.55885e+09 0.029162 
583 1.55885e+09 0.025000 
584 1.55885e+09 0.025000 
585 1.55885e+09 0.029698 
586 1.55885e+09 0.024969 
587 1.55885e+09 0.024570 
588 1.55885e+09 0.030155 
589 1.55885e+09 0.020460 
590 1.55885e+09 0.028373 
591 1.55885e+09 0.030993 
592 1.55885e+09 0.023794 
593 1.55885e+09 0.024977 
594 1.55885e+09 0.024528 
595 1.55885e+09 0.026561 
596 1.55885e+09 0.029156 
597 1.55885e+09 0.028430 
598 1.55885e+09 0.030510 
599 1.55885e+09 0.024518 
600 1.55885e+09 0.024993 
601 1.55885e+09 0.026553 
602 1.55885e+09 0.029136 
603 1.55885e+09 0.028430 
604 1.55885e+09 0.030498 
605 1.55885e+09 0.024602 
606 1.55885e+09 0.024960 
607 1.55885e+09 0.030201 
608 1.55885e+09 0.020461 
609 1.55885e+09 0.028381 
610 1.55885e+09 0.031109 
611 1.55885e+09 0.023810 
612 1.55885e+09 0.024992 
613 1.55885e+09 0.025000 
614 1.55885e+09 0.029437 
615 1.55885e+09 0.025000 
616 1.55885e+09 0.025001 
617 1.55885e+09 0.029698 
618 1.55885e+09 0.025078 
619 1.55885e+09 0.025592 
620 1.55885e+09 0.030150 
621 1.55885e+09 0.020811 
622 1.55885e+09 0.029032 
623 1.55885e+09 0.031368 
624 1.55885e+09 0.024396 
625 1.55885e+09 0.025003 
626 1.55885e+09 0.025295 
627 1.55885e+09 0.026642 
628 1.55885e+09 0.029600 
629 1.55885e+09 0.028755 
630 1.55885e+09 0.030666 
631 1.55885e+09 0.024366 
632 1.55885e+09 0.024938 
633 1.55885e+09 0.030263 
634 1.55885e+09 0.028932 
635 1.55885e+09 0.020331 
636 1.55885e+09 0.027480 
637 1.55885e+09 0.032183 
638 1.55885e+09 0.024694 
639 1.55885e+09 0.024991 
640 1.55885e+09 0.026789 
641 1.55885e+09 0.028486 
642 1.55885e+09 0.030320 
643 1.55885e+09 0.023895 
644 1.55885e+09 0.025002 
645 1.55885e+09 0.025003 
646 1.55885e+09 0.029158 
647 1.55885e+09 0.024999 
648 1.55885e+09 0.025000 
649 1.55885e+09 0.029699 
650 1.55885e+09 0.025007 
651 1.55885e+09 0.025292 
652 1.55885e+09 0.030077 
653 1.55885e+09 0.020664 
654 1.55885e+09 0.028803 
655 1.55885e+09 0.031198 
656 1.55885e+09 0.024222 
657 1.55885e+09 0.025020 
658 1.55885e+09 0.025393 
659 1.55885e+09 0.026669 
660 1.55885e+09 0.029654 
661 1.55885e+09 0.028805 
662 1.55885e+09 0.030683 
663 1.55885e+09 0.025709 
664 1.55885e+09 0.025044 
665 1.55885e+09 0.026689 
666 1.55885e+09 0.029815 
667 1.55885e+09 0.028954 
668 1.55885e+09 0.030737 
669 1.55885e+09 0.025553 
670 1.55885e+09 0.025077 
671 1.55885e+09 0.030154 
672 1.55885e+09 0.020797 
673 1.55885e+09 0.029013 
674 1.55885e+09 0.031360 
675 1.55885e+09 0.024383 
676 1.55885e+09 0.024998 
677 1.55885e+09 0.024996 
678 1.55885e+09 0.029435 
679 1.55885e+09 0.025000 
680 1.55885e+09 0.024997 
681 1.55885e+09 0.029700 
682 1.55885e+09 0.024946 
683 1.55885e+09 0.024418 
684 1.55885e+09 0.030154 
685 1.55885e+09 0.020406 
686 1.55885e+09 0.028263 
687 1.55885e+09 0.030951 
688 1.55885e+09 0.023703 
689 1.55885e+09 0.024991 
690 1.55885e+09 0.024631 
691 1.55885e+09 0.026566 
692 1.55885e+09 0.029220 
693 1.55885e+09 0.028484 
694 1.55885e+09 0.030476 
695 1.55885e+09 0.025429 
696 1.55885e+09 0.025037 
697 1.55885e+09 0.030079 
698 1.55885e+09 0.028904 
699 1.55885e+09 0.031237 
700 1.55885e+09 0.024302 
701 1.55885e+09 0.020729 
702 1.55885e+09 0.025484 
703 1.55885e+09 0.025022 
704 1.55885e+09 0.026645 
705 1.55885e+09 0.029691 
706 1.55885e+09 0.028849 
707 1.55885e+09 0.030687 
708 1.55885e+09 0.024997 
709 1.55885e+09 0.024999 
710 1.55885e+09 0.029692 
711 1.55885e+09 0.025003 
712 1.55885e+09 0.025000 
713 1.55885e+09 0.029430 
714 1.55885e+09 0.024968 
715 1.55885e+09 0.024385 
716 1.55885e+09 0.026529 
717 1.55885e+09 0.029062 
718 1.55885e+09 0.028354 
719 1.55885e+09 0.030477 
720 1.55885e+09 0.024957 
721 1.55885e+09 0.024379 
722 1.55885e+09 0.026710 
723 1.55885e+09 0.028303 
724 1.55885e+09 0.030251 
725 1.55885e+09 0.023741 
726 1.55885e+09 0.024667 
727 1.55885e+09 0.024975 
728 1.55885e+09 0.030207 
729 1.55885e+09 0.028430 
730 1.55885e+09 0.031126 
731 1.55885e+09 0.023851 
732 1.55885e+09 0.020494 
733 1.55885e+09 0.024673 
734 1.55885e+09 0.024983 
735 1.55885e+09 0.030269 
736 1.55885e+09 0.029149 
737 1.55885e+09 0.027671 
738 1.55885e+09 0.032246 
739 1.55885e+09 0.020464 
740 1.55885e+09 0.025000 
741 1.55885e+09 0.025000 
742 1.55885e+09 0.029699 
743 1.55885e+09 0.024999 
744 1.55885e+09 0.025000 
745 1.55885e+09 0.029162 
746 1.55885e+09 0.025028 
747 1.55885e+09 0.025462 
748 1.55885e+09 0.026685 
749 1.55885e+09 0.029692 
750 1.55885e+09 0.028841 
751 1.55885e+09 0.030693 
752 1.55885e+09 0.025045 
753 1.55885e+09 0.025391 
754 1.55885e+09 0.030151 
755 1.55885e+09 0.028892 
756 1.55885e+09 0.031322 
757 1.55885e+09 0.024282 
758 1.55885e+09 0.020730 
759 1.55885e+09 0.024414 
760 1.55885e+09 0.024944 
761 1.55885e+09 0.030156 
762 1.55885e+09 0.028260 
763 1.55885e+09 0.030950 
764 1.55885e+09 0.023701 
765 1.55885e+09 0.020406 
766 1.55885e+09 0.024619 
767 1.55885e+09 0.024996 
768 1.55885e+09 0.026680 
769 1.55885e+09 0.024666 
770 1.55885e+09 0.026732 
771 1.55885e+09 0.030242 
772 1.55885e+09 0.025003 
773 1.55885e+09 0.025003 
774 1.55885e+09 0.029704 
775 1.55885e+09 0.024998 
776 1.55885e+09 0.024999 
777 1.55885e+09 0.029138 
778 1.55885e+09 0.025052 
779 1.55885e+09 0.025713 
780 1.55885e+09 0.026681 
781 1.55885e+09 0.029835 
782 1.55885e+09 0.028956 
783 1.55885e+09 0.030692 
784 1.55885e+09 0.025061 
785 1.55885e+09 0.025624 
786 1.55885e+09 0.026900 
787 1.55885e+09 0.028975 
788 1.55885e+09 0.030526 
789 1.55885e+09 0.024351 
790 1.55885e+09 0.025305 
791 1.55885e+09 0.025012 
792 1.55885e+09 0.030068 
793 1.55885e+09 0.028810 
794 1.55885e+09 0.031199 
795 1.55885e+09 0.024227 
796 1.55885e+09 0.020667 
797 1.55885e+09 0.025364 
798 1.55885e+09 0.025029 
799 1.55885e+09 0.030217 
800 1.55885e+09 0.028725 
801 1.55885e+09 0.027288 
802 1.55885e+09 0.032328 
803 1.55885e+09 0.020689 
804 1.55885e+09 0.025005 
805 1.55885e+09 0.025002 
806 1.55885e+09 0.030454 
807 1.55885e+09 0.025000 
808 1.55885e+09 0.024999 
809 1.55885e+09 0.029161 
810 1.55885e+09 0.024963 
811 1.55885e+09 0.024287 
812 1.55885e+09 0.026509 
813 1.55885e+09 0.028966 
814 1.55885e+09 0.028026 
815 1.55885e+09 0.030461 
816 1.55885e+09 0.024984 
817 1.55885e+09 0.024708 
818 1.55885e+09 0.030211 
819 1.55885e+09 0.028463 
820 1.55885e+09 0.031138 
821 1.55885e+09 0.023876 
822 1.55885e+09 0.020513 
823 1.55885e+09 0.024589 
824 1.55885e+09 0.024972 
825 1.55885e+09 0.030263 
826 1.55885e+09 0.029064 
827 1.55885e+09 0.027734 
828 1.55885e+09 0.032217 
829 1.55885e+09 0.020425 
830 1.55885e+09 0.024544 
831 1.55885e+09 0.024972 
832 1.55885e+09 0.026747 
833 1.55885e+09 0.028396 
834 1.55885e+09 0.030285 
835 1.55885e+09 0.023820 
836 1.55885e+09 0.025000 
837 1.55885e+09 0.024999 
838 1.55885e+09 0.028677 
839 1.55885e+09 0.024999 
840 1.55885e+09 0.025001 
841 1.55885e+09 0.030441 
842 1.55885e+09 0.025032 
843 1.55885e+09 0.025448 
844 1.55885e+09 0.026858 
845 1.55885e+09 0.028876 
846 1.55885e+09 0.030489 
847 1.55885e+09 0.024272 
848 1.55885e+09 0.025022 
849 1.55885e+09 0.025444 
850 1.55885e+09 0.026683 
851 1.55885e+09 0.029635 
852 1.55885e+09 0.028542 
853 1.55885e+09 0.030691 
854 1.55885e+09 0.025398 
855 1.55885e+09 0.025033 
856 1.55885e+09 0.030205 
857 1.55885e+09 0.029627 
858 1.55885e+09 0.028174 
859 1.55885e+09 0.032397 
860 1.55885e+09 0.020703 
861 1.55885e+09 0.025411 
862 1.55885e+09 0.025048 
863 1.55885e+09 0.030151 
864 1.55885e+09 0.028909 
865 1.55885e+09 0.031328 
866 1.55885e+09 0.024296 
867 1.55885e+09 0.020740 
868 1.55885e+09 0.025000 
869 1.55885e+09 0.025001 
870 1.55885e+09 0.028675 
871 1.55885e+09 0.025000 
872 1.55885e+09 0.025000 
873 1.55885e+09 0.030458 
874 1.55885e+09 0.024963 
875 1.55885e+09 0.024587 
876 1.55885e+09 0.030204 
877 1.55885e+09 0.028367 
878 1.55885e+09 0.031106 
879 1.55885e+09 0.023798 
880 1.55885e+09 0.020456 
881 1.55885e+09 0.024984 
882 1.55885e+09 0.024557 
883 1.55885e+09 0.026689 
884 1.55885e+09 0.024627 
885 1.55885e+09 0.026652 
886 1.55885e+09 0.030285 
887 1.55885e+09 0.025423 
888 1.55885e+09 0.025042 
889 1.55885e+09 0.030209 
890 1.55885e+09 0.029643 
891 1.55885e+09 0.028191 
892 1.55885e+09 0.032403 
893 1.55885e+09 0.020716 
894 1.55885e+09 0.025433 
895 1.55885e+09 0.025036 
896 1.55885e+09 0.026860 
897 1.55885e+09 0.028869 
898 1.55885e+09 0.030488 
899 1.55885e+09 0.024263 
900 1.55885e+09 0.025000 
901 1.55885e+09 0.025000 
902 1.55885e+09 0.028676 
903 1.55885e+09 0.025000 
904 1.55885e+09 0.024999 
905 1.55885e+09 0.030458 
906 1.55885e+09 0.024988 
907 1.55885e+09 0.024647 
908 1.55885e+09 0.026776 
909 1.55885e+09 0.028457 
910 1.55885e+09 0.030309 
911 1.55885e+09 0.023871 
912 1.55885e+09 0.024992 
913 1.55885e+09 0.024643 
914 1.55885e+09 0.026710 
915 1.55885e+09 0.024679 
916 1.55885e+09 0.026699 
917 1.55885e+09 0.030298 
918 1.55885e+09 0.024449 
919 1.55885e+09 0.024953 
920 1.55885e+09 0.030263 
921 1.55885e+09 0.028972 
922 1.55885e+09 0.027652 
923 1.55885e+09 0.032189 
924 1.55885e+09 0.020367 
925 1.55885e+09 0.024455 
926 1.55885e+09 0.024940 
927 1.55885e+09 0.030201 
928 1.55885e+09 0.028277 
929 1.55885e+09 0.031078 
930 1.55885e+09 0.023729 
931 1.55885e+09 0.020403 
932 1.55885e+09 0.025002 
933 1.55885e+09 0.025006 
934 1.55885e+09 0.028680 
935 1.55885e+09 0.025002 
936 1.55885e+09 0.024995 
937 1.55885e+09 0.030458 
938 1.55885e+09 0.025043 
939 1.55885e+09 0.025419 
940 1.55885e+09 0.030071 
941 1.55885e+09 0.028900 
942 1.55885e+09 0.031226 
943 1.55885e+09 0.024293 
944 1.55885e+09 0.020716 
945 1.55885e+09 0.025026 
946 1.55885e+09 0.025473 
947 1.55885e+09 0.026744 
948 1.55885e+09 0.025164 
949 1.55885e+09 0.027083 
950 1.55885e+09 0.030400 
951 1.55885e+09 0.025281 
952 1.55885e+09 0.025011 
953 1.55885e+09 0.030202 
954 1.55885e+09 0.029544 
955 1.55885e+09 0.028096 
956 1.55885e+09 0.032377 
957 1.55885e+09 0.020648 
958 1.55885e+09 0.025671 
959 1.55885e+09 0.025065 
960 1.55885e+09 0.026901 
961 1.55885e+09 0.029007 
962 1.55885e+09 0.030540 
963 1.55885e+09 0.024376 
964 1.55885e+09 0.025001 
965 1.55885e+09 0.025001 
966 1.55885e+09 0.028675 
967 1.55885e+09 0.025000 
968 1.55885e+09 0.025004 
969 1.55885e+09 0.030457 
970 1.55885e+09 0.024974 
971 1.55885e+09 0.024566 
972 1.55885e+09 0.026750 
973 1.55885e+09 0.028410 
974 1.55885e+09 0.030290 
975 1.55885e+09 0.023832 
976 1.55885e+09 0.024982 
977 1.55885e+09 0.024508 
978 1.55885e+09 0.026656 
979 1.55885e+09 0.024601 
980 1.55885e+09 0.026629 
981 1.55885e+09 0.030226 
982 1.55885e+09 0.024573 
983 1.55885e+09 0.024967 
984 1.55885e+09 0.030273 
985 1.55885e+09 0.028168 
986 1.55885e+09 0.026928 
987 1.55885e+09 0.032141 
988 1.55885e+09 0.020418 
989 1.55885e+09 0.024565 
990 1.55885e+09 0.024969 
991 1.55885e+09 0.030158 
992 1.55885e+09 0.028369 
993 1.55885e+09 0.030997 
994 1.55885e+09 0.023791 
995 1.55885e+09 0.020462 
996 1.55885e+09 0.025001 
997 1.55885e+09 0.025000 
998 1.55885e+09 0.028677 
999 1.55885e+09 0.025004 
1000 1.55885e+09 0.025000 
1001 1.55885e+09 0.030461 
1002 1.55885e+09 0.025014 
1003 1.55885e+09 0.025279 
1004 1.55885e+09 0.030143 
1005 1.55885e+09 0.028804 
1006 1.55885e+09 0.031297 
1007 1.55885e+09 0.024214 
1008 1.55885e+09 0.020677 
1009 1.55885e+09 0.025051 
1010 1.55885e+09 0.025677 
1011 1.55885e+09 0.026830 
1012 1.55885e+09 0.025278 
1013 1.55885e+09 0.027189 
1014 1.55885e+09 0.030473 
1015 1.55885e+09 0.024691 
1016 1.55885e+09 0.024988 
1017 1.55885e+09 0.030280 
1018 1.55885e+09 0.028253 
1019 1.55885e+09 0.027007 
1020 1.55885e+09 0.032166 
1021 1.55885e+09 0.020473 
1022 1.55885e+09 0.024317 
1023 1.55885e+09 0.024948 
1024 1.55885e+09 0.026692 
1025 1.55885e+09 0.028262 
1026 1.55885e+09 0.030230 
1027 1.55885e+09 0.023700 
1028 1.55885e+09 0.024999 
1029 1.55885e+09 0.024999 
1030 1.55885e+09 0.028677 
1031 1.55885e+09 0.025002 
1032 1.55885e+09 0.024996 
1033 1.55885e+09 0.030451 
1034 1.55885e+09 0.025023 
1035 1.55885e+09 0.025371 
1036 1.55885e+09 0.026842 
1037 1.55885e+09 0.028830 
1038 1.55885e+09 0.030477 
1039 1.55885e+09 0.024236 
1040 1.55885e+09 0.025000 
1041 1.55885e+09 0.025343 
1042 1.55885e+09 0.026713 
1043 1.55885e+09 0.025092 
1044 1.55885e+09 0.027012 
1045 1.55885e+09 0.030386 
1046 1.55885e+09 0.025563 
1047 1.55885e+09 0.025063 
1048 1.55885e+09 0.030218 
1049 1.55885e+09 0.028868 
1050 1.55885e+09 0.027492 
1051 1.55885e+09 0.032365 
1052 1.55885e+09 0.020773 
1053 1.55885e+09 0.025611 
1054 1.55885e+09 0.025064 
1055 1.55885e+09 0.030071 
1056 1.55885e+09 0.029025 
1057 1.55885e+09 0.031287 
1058 1.55885e+09 0.024408 
1059 1.55885e+09 0.020788 
1060 1.55885e+09 0.025000 
1061 1.55885e+09 0.025004 
1062 1.55885e+09 0.028679 
1063 1.55885e+09 0.025001 
1064 1.55885e+09 0.024991 
1065 1.55885e+09 0.030459 
1066 1.55885e+09 0.024995 
1067 1.55885e+09 0.024672 
1068 1.55885e+09 0.030150 
1069 1.55885e+09 0.028451 
1070 1.55885e+09 0.031022 
1071 1.55885e+09 0.023857 
1072 1.55885e+09 0.020504 
1073 1.55885e+09 0.024973 
1074 1.55885e+09 0.024329 
1075 1.55885e+09 0.026621 
1076 1.55885e+09 0.024490 
1077 1.55885e+09 0.026542 
1078 1.55885e+09 0.030187 
1079 1.55885e+09 0.025000 
1080 1.55885e+09 0.020875 
1081 1.55885e+09 0.024900 
1082 1.55885e+09 0.025000 
1083 1.55885e+09 0.020567 
1084 1.55885e+09 0.026890 
1085 1.55885e+09 0.025000 
1086 1.55885e+09 0.026967 
1087 1.55885e+09 0.020449 
1088 1.55885e+09 0.025000 
1089 1.55885e+09 0.020418 
1090 1.55885e+09 0.026936 
1091 1.55885e+09 0.025000 
1092 1.55885e+09 0.020418 
1093 1.55885e+09 0.026917 
1094 1.55885e+09 0.025000 
1095 1.55885e+09 0.020414 
1096 1.55885e+09 0.026917 
1097 1.55885e+09 0.025000 
1098 1.55885e+09 0.020405 
1099 1.55885e+09 0.026923 
1100 1.55885e+09 0.025000 
1101 1.55885e+09 0.020405 
1102 1.55885e+09 0.026914 
1103 1.55885e+09 0.025000 
1104 1.55885e+09 0.020405 
1105 1.55885e+09 0.026914 
1106 1.55885e+09 0.025000 
1107 1.55885e+09 0.020319 
1108 1.55885e+09 0.026914 
1109 1.55885e+09 0.021175 
1110 1.55885e+09 0.026753 
1111 1.55885e+09 0.025000 
1112 1.55885e+09 0.020675 
1113 1.55885e+09 0.024926 
1114 1.55885e+09 0.025000 
1115 1.55885e+09 0.027619 
1116 1.55885e+09 0.021002 
1117 1.55885e+09 0.025000 
1118 1.55885e+09 0.024410 
1119 1.55885e+09 0.026537 
1120 1.55885e+09 0.025000 
1121 1.55885e+09 0.028662 
1122 1.55885e+09 0.021832 
1123 1.55885e+09 0.025000 
1124 1.55885e+09 0.023278 
1125 1.55885e+09 0.024192 
1126 1.55885e+09 0.025000 
1127 1.55885e+09 0.022434 
1128 1.55885e+09 0.022560 
1129 1.55885e+09 0.025000 
1130 1.55885e+09 0.022876 
1131 1.55885e+09 0.023562 
1132 1.55885e+09 0.025000 
1133 1.55885e+09 0.021368 
1134 1.55885e+09 0.023713 
1135 1.55885e+09 0.025000 
1136 1.55885e+09 0.023129 
1137 1.55885e+09 0.021067 
1138 1.55885e+09 0.025001 
1139 1.55885e+09 0.020230 
1140 1.55885e+09 0.019184 
1141 1.55885e+09 0.019776 
1142 1.55885e+09 0.021086 
1143 1.55885e+09 0.025000 
1144 1.55885e+09 0.029874 
1145 1.55885e+09 0.019771 