LAMMPS DATA FILE 

14926 atoms 
33816 bonds 

4 atom types 
33816 bond types 

-2.725265 2.725315 xlo xhi 
-2.723590 2.726450 ylo yhi 
-0.006848 0.006848 zlo zhi 

Bond Coeffs # harmonic 

1 1.55885e+09 0.024998 
2 1.55885e+09 0.025001 
3 1.55885e+09 0.023152 
4 1.55885e+09 0.029244 
5 1.55885e+09 0.017836 
6 1.55885e+09 0.020629 
7 1.55885e+09 0.025001 
8 1.55885e+09 0.025001 
9 1.55885e+09 0.023206 
10 1.55885e+09 0.029262 
11 1.55885e+09 0.017845 
12 1.55885e+09 0.020490 
13 1.55885e+09 0.024989 
14 1.55885e+09 0.024998 
15 1.55885e+09 0.021925 
16 1.55885e+09 0.027133 
17 1.55885e+09 0.017595 
18 1.55885e+09 0.025001 
19 1.55885e+09 0.025001 
20 1.55885e+09 0.021854 
21 1.55885e+09 0.027097 
22 1.55885e+09 0.017740 
23 1.55885e+09 0.025000 
24 1.55885e+09 0.025003 
25 1.55885e+09 0.022880 
26 1.55885e+09 0.027087 
27 1.55885e+09 0.017841 
28 1.55885e+09 0.020633 
29 1.55885e+09 0.025000 
30 1.55885e+09 0.025003 
31 1.55885e+09 0.023103 
32 1.55885e+09 0.029216 
33 1.55885e+09 0.017825 
34 1.55885e+09 0.020717 
35 1.55885e+09 0.024993 
36 1.55885e+09 0.025000 
37 1.55885e+09 0.023154 
38 1.55885e+09 0.027044 
39 1.55885e+09 0.017386 
40 1.55885e+09 0.020406 
41 1.55885e+09 0.024998 
42 1.55885e+09 0.024993 
43 1.55885e+09 0.023196 
44 1.55885e+09 0.027000 
45 1.55885e+09 0.017408 
46 1.55885e+09 0.020308 
47 1.55885e+09 0.025000 
48 1.55885e+09 0.024994 
49 1.55885e+09 0.022911 
50 1.55885e+09 0.027260 
51 1.55885e+09 0.017813 
52 1.55885e+09 0.020601 
53 1.55885e+09 0.025002 
54 1.55885e+09 0.024993 
55 1.55885e+09 0.021688 
56 1.55885e+09 0.022637 
57 1.55885e+09 0.027160 
58 1.55885e+09 0.018976 
59 1.55885e+09 0.025003 
60 1.55885e+09 0.025003 
61 1.55885e+09 0.023318 
62 1.55885e+09 0.027283 
63 1.55885e+09 0.017368 
64 1.55885e+09 0.020079 
65 1.55885e+09 0.025000 
66 1.55885e+09 0.025003 
67 1.55885e+09 0.023322 
68 1.55885e+09 0.027408 
69 1.55885e+09 0.017330 
70 1.55885e+09 0.020116 
71 1.55885e+09 0.025008 
72 1.55885e+09 0.024998 
73 1.55885e+09 0.022866 
74 1.55885e+09 0.026986 
75 1.55885e+09 0.017867 
76 1.55885e+09 0.020649 
77 1.55885e+09 0.024998 
78 1.55885e+09 0.024998 
79 1.55885e+09 0.023146 
80 1.55885e+09 0.029238 
81 1.55885e+09 0.017836 
82 1.55885e+09 0.020629 
83 1.55885e+09 0.024998 
84 1.55885e+09 0.024998 
85 1.55885e+09 0.021650 
86 1.55885e+09 0.022566 
87 1.55885e+09 0.027119 
88 1.55885e+09 0.019154 
89 1.55885e+09 0.025008 
90 1.55885e+09 0.025004 
91 1.55885e+09 0.023152 
92 1.55885e+09 0.027008 
93 1.55885e+09 0.017379 
94 1.55885e+09 0.020384 
95 1.55885e+09 0.024997 
96 1.55885e+09 0.025000 
97 1.55885e+09 0.023467 
98 1.55885e+09 0.029131 
99 1.55885e+09 0.017360 
100 1.55885e+09 0.020305 
101 1.55885e+09 0.024997 
102 1.55885e+09 0.024999 
103 1.55885e+09 0.021674 
104 1.55885e+09 0.022546 
105 1.55885e+09 0.027312 
106 1.55885e+09 0.019180 
107 1.55885e+09 0.024999 
108 1.55885e+09 0.024997 
109 1.55885e+09 0.023189 
110 1.55885e+09 0.027037 
111 1.55885e+09 0.017393 
112 1.55885e+09 0.020337 
113 1.55885e+09 0.025006 
114 1.55885e+09 0.025000 
115 1.55885e+09 0.021826 
116 1.55885e+09 0.026835 
117 1.55885e+09 0.017836 
118 1.55885e+09 0.025001 
119 1.55885e+09 0.025001 
120 1.55885e+09 0.022926 
121 1.55885e+09 0.027259 
122 1.55885e+09 0.017812 
123 1.55885e+09 0.021123 
124 1.55885e+09 0.025000 
125 1.55885e+09 0.025001 
126 1.55885e+09 0.022931 
127 1.55885e+09 0.027214 
128 1.55885e+09 0.017830 
129 1.55885e+09 0.021097 
130 1.55885e+09 0.025001 
131 1.55885e+09 0.025000 
132 1.55885e+09 0.021897 
133 1.55885e+09 0.027059 
134 1.55885e+09 0.017570 
135 1.55885e+09 0.024999 
136 1.55885e+09 0.025000 
137 1.55885e+09 0.023299 
138 1.55885e+09 0.027325 
139 1.55885e+09 0.017348 
140 1.55885e+09 0.020138 
141 1.55885e+09 0.025000 
142 1.55885e+09 0.025001 
143 1.55885e+09 0.022854 
144 1.55885e+09 0.027022 
145 1.55885e+09 0.017857 
146 1.55885e+09 0.021249 
147 1.55885e+09 0.025000 
148 1.55885e+09 0.025000 
149 1.55885e+09 0.022848 
150 1.55885e+09 0.027076 
151 1.55885e+09 0.017839 
152 1.55885e+09 0.021276 
153 1.55885e+09 0.025000 
154 1.55885e+09 0.025000 
155 1.55885e+09 0.021773 
156 1.55885e+09 0.026817 
157 1.55885e+09 0.017761 
158 1.55885e+09 0.025000 
159 1.55885e+09 0.025001 
160 1.55885e+09 0.021773 
161 1.55885e+09 0.026782 
162 1.55885e+09 0.017768 
163 1.55885e+09 0.024997 
164 1.55885e+09 0.025000 
165 1.55885e+09 0.022952 
166 1.55885e+09 0.027339 
167 1.55885e+09 0.017795 
168 1.55885e+09 0.021087 
169 1.55885e+09 0.024997 
170 1.55885e+09 0.025001 
171 1.55885e+09 0.022902 
172 1.55885e+09 0.027237 
173 1.55885e+09 0.017816 
174 1.55885e+09 0.020604 
175 1.55885e+09 0.025001 
176 1.55885e+09 0.024997 
177 1.55885e+09 0.023184 
178 1.55885e+09 0.029257 
179 1.55885e+09 0.017844 
180 1.55885e+09 0.020548 
181 1.55885e+09 0.024997 
182 1.55885e+09 0.025001 
183 1.55885e+09 0.021917 
184 1.55885e+09 0.027074 
185 1.55885e+09 0.017543 
186 1.55885e+09 0.025000 
187 1.55885e+09 0.025001 
188 1.55885e+09 0.022139 
189 1.55885e+09 0.029168 
190 1.55885e+09 0.017653 
191 1.55885e+09 0.024999 
192 1.55885e+09 0.025001 
193 1.55885e+09 0.022957 
194 1.55885e+09 0.027288 
195 1.55885e+09 0.017805 
196 1.55885e+09 0.021054 
197 1.55885e+09 0.025001 
198 1.55885e+09 0.025000 
199 1.55885e+09 0.023310 
200 1.55885e+09 0.027373 
201 1.55885e+09 0.017336 
202 1.55885e+09 0.020136 
203 1.55885e+09 0.025000 
204 1.55885e+09 0.024997 
205 1.55885e+09 0.021849 
206 1.55885e+09 0.027021 
207 1.55885e+09 0.017787 
208 1.55885e+09 0.025000 
209 1.55885e+09 0.025000 
210 1.55885e+09 0.022833 
211 1.55885e+09 0.027028 
212 1.55885e+09 0.017851 
213 1.55885e+09 0.021295 
214 1.55885e+09 0.025000 
215 1.55885e+09 0.025000 
216 1.55885e+09 0.021689 
217 1.55885e+09 0.022560 
218 1.55885e+09 0.027305 
219 1.55885e+09 0.019130 
220 1.55885e+09 0.025000 
221 1.55885e+09 0.025001 
222 1.55885e+09 0.021802 
223 1.55885e+09 0.026815 
224 1.55885e+09 0.017726 
225 1.55885e+09 0.025000 
226 1.55885e+09 0.025001 
227 1.55885e+09 0.023192 
228 1.55885e+09 0.027114 
229 1.55885e+09 0.017372 
230 1.55885e+09 0.020331 
231 1.55885e+09 0.025001 
232 1.55885e+09 0.025001 
233 1.55885e+09 0.021571 
234 1.55885e+09 0.022686 
235 1.55885e+09 0.027543 
236 1.55885e+09 0.018915 
237 1.55885e+09 0.025000 
238 1.55885e+09 0.024999 
239 1.55885e+09 0.021575 
240 1.55885e+09 0.022673 
241 1.55885e+09 0.027523 
242 1.55885e+09 0.018935 
243 1.55885e+09 0.025000 
244 1.55885e+09 0.025001 
245 1.55885e+09 0.021586 
246 1.55885e+09 0.026990 
247 1.55885e+09 0.017634 
248 1.55885e+09 0.025001 
249 1.55885e+09 0.025000 
250 1.55885e+09 0.021608 
251 1.55885e+09 0.026962 
252 1.55885e+09 0.017618 
253 1.55885e+09 0.024999 
254 1.55885e+09 0.025000 
255 1.55885e+09 0.021620 
256 1.55885e+09 0.022540 
257 1.55885e+09 0.027233 
258 1.55885e+09 0.019142 
259 1.55885e+09 0.024999 
260 1.55885e+09 0.025000 
261 1.55885e+09 0.021698 
262 1.55885e+09 0.022590 
263 1.55885e+09 0.027330 
264 1.55885e+09 0.019040 
265 1.55885e+09 0.025000 
266 1.55885e+09 0.024999 
267 1.55885e+09 0.023094 
268 1.55885e+09 0.029044 
269 1.55885e+09 0.017823 
270 1.55885e+09 0.020696 
271 1.55885e+09 0.025008 
272 1.55885e+09 0.025000 
273 1.55885e+09 0.021461 
274 1.55885e+09 0.026769 
275 1.55885e+09 0.017818 
276 1.55885e+09 0.024999 
277 1.55885e+09 0.024999 
278 1.55885e+09 0.022006 
279 1.55885e+09 0.029120 
280 1.55885e+09 0.017807 
281 1.55885e+09 0.024999 
282 1.55885e+09 0.024999 
283 1.55885e+09 0.022803 
284 1.55885e+09 0.026952 
285 1.55885e+09 0.017866 
286 1.55885e+09 0.021362 
287 1.55885e+09 0.024999 
288 1.55885e+09 0.024999 
289 1.55885e+09 0.021822 
290 1.55885e+09 0.026775 
291 1.55885e+09 0.017849 
292 1.55885e+09 0.024999 
293 1.55885e+09 0.024999 
294 1.55885e+09 0.021112 
295 1.55885e+09 0.029147 
296 1.55885e+09 0.017863 
297 1.55885e+09 0.025001 
298 1.55885e+09 0.025005 
299 1.55885e+09 0.021602 
300 1.55885e+09 0.022678 
301 1.55885e+09 0.027489 
302 1.55885e+09 0.018865 
303 1.55885e+09 0.024999 
304 1.55885e+09 0.025005 
305 1.55885e+09 0.021555 
306 1.55885e+09 0.022710 
307 1.55885e+09 0.027597 
308 1.55885e+09 0.018898 
309 1.55885e+09 0.025005 
310 1.55885e+09 0.024999 
311 1.55885e+09 0.021563 
312 1.55885e+09 0.027001 
313 1.55885e+09 0.017722 
314 1.55885e+09 0.024999 
315 1.55885e+09 0.025005 
316 1.55885e+09 0.023516 
317 1.55885e+09 0.029153 
318 1.55885e+09 0.017372 
319 1.55885e+09 0.020187 
320 1.55885e+09 0.025001 
321 1.55885e+09 0.025000 
322 1.55885e+09 0.021593 
323 1.55885e+09 0.022528 
324 1.55885e+09 0.027259 
325 1.55885e+09 0.019194 
326 1.55885e+09 0.025000 
327 1.55885e+09 0.025000 
328 1.55885e+09 0.021620 
329 1.55885e+09 0.022548 
330 1.55885e+09 0.027220 
331 1.55885e+09 0.019100 
332 1.55885e+09 0.025000 
333 1.55885e+09 0.025000 
334 1.55885e+09 0.023236 
335 1.55885e+09 0.027137 
336 1.55885e+09 0.017374 
337 1.55885e+09 0.020237 
338 1.55885e+09 0.024997 
339 1.55885e+09 0.025000 
340 1.55885e+09 0.023456 
341 1.55885e+09 0.029130 
342 1.55885e+09 0.017358 
343 1.55885e+09 0.020324 
344 1.55885e+09 0.025005 
345 1.55885e+09 0.025002 
346 1.55885e+09 0.021557 
347 1.55885e+09 0.022717 
348 1.55885e+09 0.027604 
349 1.55885e+09 0.018859 
350 1.55885e+09 0.025002 
351 1.55885e+09 0.025005 
352 1.55885e+09 0.021539 
353 1.55885e+09 0.022667 
354 1.55885e+09 0.027572 
355 1.55885e+09 0.018990 
356 1.55885e+09 0.025002 
357 1.55885e+09 0.025002 
358 1.55885e+09 0.021112 
359 1.55885e+09 0.029150 
360 1.55885e+09 0.017852 
361 1.55885e+09 0.025002 
362 1.55885e+09 0.025005 
363 1.55885e+09 0.023557 
364 1.55885e+09 0.029172 
365 1.55885e+09 0.017385 
366 1.55885e+09 0.020118 
367 1.55885e+09 0.028680 
368 1.55885e+09 0.029633 
369 1.55885e+09 0.027114 
370 1.55885e+09 0.029217 
371 1.55885e+09 0.030562 
372 1.55885e+09 0.024506 
373 1.55885e+09 0.029647 
374 1.55885e+09 0.020943 
375 1.55885e+09 0.030079 
376 1.55885e+09 0.025310 
377 1.55885e+09 0.029021 
378 1.55885e+09 0.031405 
379 1.55885e+09 0.019971 
380 1.55885e+09 0.030279 
381 1.55885e+09 0.024168 
382 1.55885e+09 0.026211 
383 1.55885e+09 0.031231 
384 1.55885e+09 0.029439 
385 1.55885e+09 0.026768 
386 1.55885e+09 0.028397 
387 1.55885e+09 0.030400 
388 1.55885e+09 0.023812 
389 1.55885e+09 0.028677 
390 1.55885e+09 0.029631 
391 1.55885e+09 0.026688 
392 1.55885e+09 0.028268 
393 1.55885e+09 0.030376 
394 1.55885e+09 0.023725 
395 1.55885e+09 0.029580 
396 1.55885e+09 0.020192 
397 1.55885e+09 0.030242 
398 1.55885e+09 0.024435 
399 1.55885e+09 0.028225 
400 1.55885e+09 0.031282 
401 1.55885e+09 0.021015 
402 1.55885e+09 0.030078 
403 1.55885e+09 0.025381 
404 1.55885e+09 0.029096 
405 1.55885e+09 0.031410 
406 1.55885e+09 0.028673 
407 1.55885e+09 0.027025 
408 1.55885e+09 0.029052 
409 1.55885e+09 0.030545 
410 1.55885e+09 0.024392 
411 1.55885e+09 0.028678 
412 1.55885e+09 0.029642 
413 1.55885e+09 0.026991 
414 1.55885e+09 0.028992 
415 1.55885e+09 0.030537 
416 1.55885e+09 0.024352 
417 1.55885e+09 0.030436 
418 1.55885e+09 0.021172 
419 1.55885e+09 0.030066 
420 1.55885e+09 0.025531 
421 1.55885e+09 0.029253 
422 1.55885e+09 0.031419 
423 1.55885e+09 0.020331 
424 1.55885e+09 0.030242 
425 1.55885e+09 0.024571 
426 1.55885e+09 0.028365 
427 1.55885e+09 0.031298 
428 1.55885e+09 0.028677 
429 1.55885e+09 0.026555 
430 1.55885e+09 0.028044 
431 1.55885e+09 0.030329 
432 1.55885e+09 0.023535 
433 1.55885e+09 0.028674 
434 1.55885e+09 0.029626 
435 1.55885e+09 0.028678 
436 1.55885e+09 0.029630 
437 1.55885e+09 0.026557 
438 1.55885e+09 0.028041 
439 1.55885e+09 0.030321 
440 1.55885e+09 0.023523 
441 1.55885e+09 0.030446 
442 1.55885e+09 0.020314 
443 1.55885e+09 0.030234 
444 1.55885e+09 0.024556 
445 1.55885e+09 0.026635 
446 1.55885e+09 0.031279 
447 1.55885e+09 0.021166 
448 1.55885e+09 0.030060 
449 1.55885e+09 0.025526 
450 1.55885e+09 0.029260 
451 1.55885e+09 0.031424 
452 1.55885e+09 0.029136 
453 1.55885e+09 0.026992 
454 1.55885e+09 0.028978 
455 1.55885e+09 0.030546 
456 1.55885e+09 0.024344 
457 1.55885e+09 0.028682 
458 1.55885e+09 0.029638 
459 1.55885e+09 0.027035 
460 1.55885e+09 0.029063 
461 1.55885e+09 0.030548 
462 1.55885e+09 0.024402 
463 1.55885e+09 0.029567 
464 1.55885e+09 0.021017 
465 1.55885e+09 0.030070 
466 1.55885e+09 0.025381 
467 1.55885e+09 0.029099 
468 1.55885e+09 0.031411 
469 1.55885e+09 0.020203 
470 1.55885e+09 0.030247 
471 1.55885e+09 0.024445 
472 1.55885e+09 0.028224 
473 1.55885e+09 0.031289 
474 1.55885e+09 0.029439 
475 1.55885e+09 0.026688 
476 1.55885e+09 0.028266 
477 1.55885e+09 0.030379 
478 1.55885e+09 0.023727 
479 1.55885e+09 0.029177 
480 1.55885e+09 0.030441 
481 1.55885e+09 0.026760 
482 1.55885e+09 0.028385 
483 1.55885e+09 0.030396 
484 1.55885e+09 0.023806 
485 1.55885e+09 0.029578 
486 1.55885e+09 0.019973 
487 1.55885e+09 0.030273 
488 1.55885e+09 0.024181 
489 1.55885e+09 0.027991 
490 1.55885e+09 0.031240 
491 1.55885e+09 0.020935 
492 1.55885e+09 0.030076 
493 1.55885e+09 0.025299 
494 1.55885e+09 0.029014 
495 1.55885e+09 0.031400 
496 1.55885e+09 0.029429 
497 1.55885e+09 0.027112 
498 1.55885e+09 0.029225 
499 1.55885e+09 0.030550 
500 1.55885e+09 0.024500 
501 1.55885e+09 0.028676 
502 1.55885e+09 0.030467 
503 1.55885e+09 0.024307 
504 1.55885e+09 0.024963 
505 1.55885e+09 0.020395 
506 1.55885e+09 0.030191 
507 1.55885e+09 0.028221 
508 1.55885e+09 0.030915 
509 1.55885e+09 0.023642 
510 1.55885e+09 0.023725 
511 1.55885e+09 0.024963 
512 1.55885e+09 0.026429 
513 1.55885e+09 0.028663 
514 1.55885e+09 0.028079 
515 1.55885e+09 0.030329 
516 1.55885e+09 0.025006 
517 1.55885e+09 0.024997 
518 1.55885e+09 0.030444 
519 1.55885e+09 0.024998 
520 1.55885e+09 0.024998 
521 1.55885e+09 0.028680 
522 1.55885e+09 0.025096 
523 1.55885e+09 0.026194 
524 1.55885e+09 0.026797 
525 1.55885e+09 0.030052 
526 1.55885e+09 0.028892 
527 1.55885e+09 0.030816 
528 1.55885e+09 0.025151 
529 1.55885e+09 0.026192 
530 1.55885e+09 0.020984 
531 1.55885e+09 0.030021 
532 1.55885e+09 0.029401 
533 1.55885e+09 0.031431 
534 1.55885e+09 0.024737 
535 1.55885e+09 0.025703 
536 1.55885e+09 0.025081 
537 1.55885e+09 0.020834 
538 1.55885e+09 0.030125 
539 1.55885e+09 0.029088 
540 1.55885e+09 0.031406 
541 1.55885e+09 0.024467 
542 1.55885e+09 0.025644 
543 1.55885e+09 0.025005 
544 1.55885e+09 0.026617 
545 1.55885e+09 0.029786 
546 1.55885e+09 0.028899 
547 1.55885e+09 0.030726 
548 1.55885e+09 0.025001 
549 1.55885e+09 0.025000 
550 1.55885e+09 0.029699 
551 1.55885e+09 0.025008 
552 1.55885e+09 0.025006 
553 1.55885e+09 0.029434 
554 1.55885e+09 0.025001 
555 1.55885e+09 0.024370 
556 1.55885e+09 0.026589 
557 1.55885e+09 0.029057 
558 1.55885e+09 0.028384 
559 1.55885e+09 0.030472 
560 1.55885e+09 0.024883 
561 1.55885e+09 0.023811 
562 1.55885e+09 0.020176 
563 1.55885e+09 0.030231 
564 1.55885e+09 0.027855 
565 1.55885e+09 0.030886 
566 1.55885e+09 0.023323 
567 1.55885e+09 0.026143 
568 1.55885e+09 0.025142 
569 1.55885e+09 0.030176 
570 1.55885e+09 0.020989 
571 1.55885e+09 0.030158 
572 1.55885e+09 0.028498 
573 1.55885e+09 0.032558 
574 1.55885e+09 0.025567 
575 1.55885e+09 0.025022 
576 1.55885e+09 0.026830 
577 1.55885e+09 0.028918 
578 1.55885e+09 0.030525 
579 1.55885e+09 0.024334 
580 1.55885e+09 0.024999 
581 1.55885e+09 0.025001 
582 1.55885e+09 0.029162 
583 1.55885e+09 0.025001 
584 1.55885e+09 0.025002 
585 1.55885e+09 0.029696 
586 1.55885e+09 0.024949 
587 1.55885e+09 0.024150 
588 1.55885e+09 0.030190 
589 1.55885e+09 0.020328 
590 1.55885e+09 0.028117 
591 1.55885e+09 0.030870 
592 1.55885e+09 0.023544 
593 1.55885e+09 0.024964 
594 1.55885e+09 0.024082 
595 1.55885e+09 0.026496 
596 1.55885e+09 0.028892 
597 1.55885e+09 0.028238 
598 1.55885e+09 0.030410 
599 1.55885e+09 0.024051 
600 1.55885e+09 0.024987 
601 1.55885e+09 0.026500 
602 1.55885e+09 0.028860 
603 1.55885e+09 0.028231 
604 1.55885e+09 0.030405 
605 1.55885e+09 0.024225 
606 1.55885e+09 0.024927 
607 1.55885e+09 0.030227 
608 1.55885e+09 0.020337 
609 1.55885e+09 0.028139 
610 1.55885e+09 0.031001 
611 1.55885e+09 0.023580 
612 1.55885e+09 0.025000 
613 1.55885e+09 0.024999 
614 1.55885e+09 0.029439 
615 1.55885e+09 0.025002 
616 1.55885e+09 0.025001 
617 1.55885e+09 0.029697 
618 1.55885e+09 0.025166 
619 1.55885e+09 0.026159 
620 1.55885e+09 0.030121 
621 1.55885e+09 0.021021 
622 1.55885e+09 0.029401 
623 1.55885e+09 0.031506 
624 1.55885e+09 0.024727 
625 1.55885e+09 0.025005 
626 1.55885e+09 0.025549 
627 1.55885e+09 0.026647 
628 1.55885e+09 0.029748 
629 1.55885e+09 0.028857 
630 1.55885e+09 0.030717 
631 1.55885e+09 0.023755 
632 1.55885e+09 0.024896 
633 1.55885e+09 0.030293 
634 1.55885e+09 0.028493 
635 1.55885e+09 0.020113 
636 1.55885e+09 0.027139 
637 1.55885e+09 0.032030 
638 1.55885e+09 0.024436 
639 1.55885e+09 0.024993 
640 1.55885e+09 0.026783 
641 1.55885e+09 0.028361 
642 1.55885e+09 0.030256 
643 1.55885e+09 0.023761 
644 1.55885e+09 0.025003 
645 1.55885e+09 0.024997 
646 1.55885e+09 0.029159 
647 1.55885e+09 0.024999 
648 1.55885e+09 0.025000 
649 1.55885e+09 0.029700 
650 1.55885e+09 0.025018 
651 1.55885e+09 0.025556 
652 1.55885e+09 0.030034 
653 1.55885e+09 0.020731 
654 1.55885e+09 0.028950 
655 1.55885e+09 0.031277 
656 1.55885e+09 0.024371 
657 1.55885e+09 0.025053 
658 1.55885e+09 0.025827 
659 1.55885e+09 0.026724 
660 1.55885e+09 0.029898 
661 1.55885e+09 0.028999 
662 1.55885e+09 0.030762 
663 1.55885e+09 0.026387 
664 1.55885e+09 0.025104 
665 1.55885e+09 0.026755 
666 1.55885e+09 0.030192 
667 1.55885e+09 0.029270 
668 1.55885e+09 0.030837 
669 1.55885e+09 0.026014 
670 1.55885e+09 0.025148 
671 1.55885e+09 0.030132 
672 1.55885e+09 0.020977 
673 1.55885e+09 0.029313 
674 1.55885e+09 0.031470 
675 1.55885e+09 0.024648 
676 1.55885e+09 0.025004 
677 1.55885e+09 0.025001 
678 1.55885e+09 0.029432 
679 1.55885e+09 0.024998 
680 1.55885e+09 0.025006 
681 1.55885e+09 0.029705 
682 1.55885e+09 0.024919 
683 1.55885e+09 0.023897 
684 1.55885e+09 0.030185 
685 1.55885e+09 0.020235 
686 1.55885e+09 0.027938 
687 1.55885e+09 0.030792 
688 1.55885e+09 0.023379 
689 1.55885e+09 0.024989 
690 1.55885e+09 0.024236 
691 1.55885e+09 0.026531 
692 1.55885e+09 0.028988 
693 1.55885e+09 0.028320 
694 1.55885e+09 0.030390 
695 1.55885e+09 0.025826 
696 1.55885e+09 0.025091 
697 1.55885e+09 0.030039 
698 1.55885e+09 0.029156 
699 1.55885e+09 0.031337 
700 1.55885e+09 0.024527 
701 1.55885e+09 0.020852 
702 1.55885e+09 0.025938 
703 1.55885e+09 0.025052 
704 1.55885e+09 0.026697 
705 1.55885e+09 0.029944 
706 1.55885e+09 0.029052 
707 1.55885e+09 0.030765 
708 1.55885e+09 0.025001 
709 1.55885e+09 0.025001 
710 1.55885e+09 0.029691 
711 1.55885e+09 0.024998 
712 1.55885e+09 0.025000 
713 1.55885e+09 0.029427 
714 1.55885e+09 0.024956 
715 1.55885e+09 0.023857 
716 1.55885e+09 0.026443 
717 1.55885e+09 0.028762 
718 1.55885e+09 0.028135 
719 1.55885e+09 0.030371 
720 1.55885e+09 0.024936 
721 1.55885e+09 0.023867 
722 1.55885e+09 0.026629 
723 1.55885e+09 0.028036 
724 1.55885e+09 0.030123 
725 1.55885e+09 0.023480 
726 1.55885e+09 0.024296 
727 1.55885e+09 0.024946 
728 1.55885e+09 0.030233 
729 1.55885e+09 0.028193 
730 1.55885e+09 0.031023 
731 1.55885e+09 0.023625 
732 1.55885e+09 0.020372 
733 1.55885e+09 0.024304 
734 1.55885e+09 0.024963 
735 1.55885e+09 0.030297 
736 1.55885e+09 0.028892 
737 1.55885e+09 0.027474 
738 1.55885e+09 0.032159 
739 1.55885e+09 0.020344 
740 1.55885e+09 0.025001 
741 1.55885e+09 0.025001 
742 1.55885e+09 0.029700 
743 1.55885e+09 0.025000 
744 1.55885e+09 0.025000 
745 1.55885e+09 0.029162 
746 1.55885e+09 0.025056 
747 1.55885e+09 0.025887 
748 1.55885e+09 0.026732 
749 1.55885e+09 0.029932 
750 1.55885e+09 0.029029 
751 1.55885e+09 0.030770 
752 1.55885e+09 0.025088 
753 1.55885e+09 0.025753 
754 1.55885e+09 0.030125 
755 1.55885e+09 0.029124 
756 1.55885e+09 0.031415 
757 1.55885e+09 0.024495 
758 1.55885e+09 0.020854 
759 1.55885e+09 0.023899 
760 1.55885e+09 0.024914 
761 1.55885e+09 0.030195 
762 1.55885e+09 0.027936 
763 1.55885e+09 0.030804 
764 1.55885e+09 0.023385 
765 1.55885e+09 0.020241 
766 1.55885e+09 0.024212 
767 1.55885e+09 0.024993 
768 1.55885e+09 0.026646 
769 1.55885e+09 0.024424 
770 1.55885e+09 0.026547 
771 1.55885e+09 0.030158 
772 1.55885e+09 0.025009 
773 1.55885e+09 0.024999 
774 1.55885e+09 0.029706 
775 1.55885e+09 0.025001 
776 1.55885e+09 0.025001 
777 1.55885e+09 0.029133 
778 1.55885e+09 0.025104 
779 1.55885e+09 0.026401 
780 1.55885e+09 0.026749 
781 1.55885e+09 0.030207 
782 1.55885e+09 0.029264 
783 1.55885e+09 0.030808 
784 1.55885e+09 0.025117 
785 1.55885e+09 0.026154 
786 1.55885e+09 0.026970 
787 1.55885e+09 0.029258 
788 1.55885e+09 0.030624 
789 1.55885e+09 0.024605 
790 1.55885e+09 0.025578 
791 1.55885e+09 0.025032 
792 1.55885e+09 0.030034 
793 1.55885e+09 0.028968 
794 1.55885e+09 0.031281 
795 1.55885e+09 0.024384 
796 1.55885e+09 0.020740 
797 1.55885e+09 0.025759 
798 1.55885e+09 0.025072 
799 1.55885e+09 0.030193 
800 1.55885e+09 0.028996 
801 1.55885e+09 0.027512 
802 1.55885e+09 0.032414 
803 1.55885e+09 0.020831 
804 1.55885e+09 0.025002 
805 1.55885e+09 0.025004 
806 1.55885e+09 0.030455 
807 1.55885e+09 0.024999 
808 1.55885e+09 0.025000 
809 1.55885e+09 0.029160 
810 1.55885e+09 0.024950 
811 1.55885e+09 0.023590 
812 1.55885e+09 0.026383 
813 1.55885e+09 0.028542 
814 1.55885e+09 0.027717 
815 1.55885e+09 0.030301 
816 1.55885e+09 0.024982 
817 1.55885e+09 0.024458 
818 1.55885e+09 0.030247 
819 1.55885e+09 0.028319 
820 1.55885e+09 0.031066 
821 1.55885e+09 0.023727 
822 1.55885e+09 0.020446 
823 1.55885e+09 0.024196 
824 1.55885e+09 0.024951 
825 1.55885e+09 0.030294 
826 1.55885e+09 0.028787 
827 1.55885e+09 0.027525 
828 1.55885e+09 0.032125 
829 1.55885e+09 0.020295 
830 1.55885e+09 0.024113 
831 1.55885e+09 0.024956 
832 1.55885e+09 0.026689 
833 1.55885e+09 0.028171 
834 1.55885e+09 0.030180 
835 1.55885e+09 0.023599 
836 1.55885e+09 0.025000 
837 1.55885e+09 0.025000 
838 1.55885e+09 0.028677 
839 1.55885e+09 0.025000 
840 1.55885e+09 0.025001 
841 1.55885e+09 0.030441 
842 1.55885e+09 0.025068 
843 1.55885e+09 0.025865 
844 1.55885e+09 0.026902 
845 1.55885e+09 0.029098 
846 1.55885e+09 0.030576 
847 1.55885e+09 0.024475 
848 1.55885e+09 0.025049 
849 1.55885e+09 0.025859 
850 1.55885e+09 0.026728 
851 1.55885e+09 0.029871 
852 1.55885e+09 0.028727 
853 1.55885e+09 0.030766 
854 1.55885e+09 0.025767 
855 1.55885e+09 0.025067 
856 1.55885e+09 0.030177 
857 1.55885e+09 0.029880 
858 1.55885e+09 0.028376 
859 1.55885e+09 0.032476 
860 1.55885e+09 0.020829 
861 1.55885e+09 0.025795 
862 1.55885e+09 0.025096 
863 1.55885e+09 0.030127 
864 1.55885e+09 0.029159 
865 1.55885e+09 0.031425 
866 1.55885e+09 0.024520 
867 1.55885e+09 0.020874 
868 1.55885e+09 0.025002 
869 1.55885e+09 0.025002 
870 1.55885e+09 0.028674 
871 1.55885e+09 0.025000 
872 1.55885e+09 0.025000 
873 1.55885e+09 0.030458 
874 1.55885e+09 0.024934 
875 1.55885e+09 0.024188 
876 1.55885e+09 0.030232 
877 1.55885e+09 0.028112 
878 1.55885e+09 0.030996 
879 1.55885e+09 0.023555 
880 1.55885e+09 0.020325 
881 1.55885e+09 0.024978 
882 1.55885e+09 0.024133 
883 1.55885e+09 0.026640 
884 1.55885e+09 0.024372 
885 1.55885e+09 0.026456 
886 1.55885e+09 0.030204 
887 1.55885e+09 0.025814 
888 1.55885e+09 0.025082 
889 1.55885e+09 0.030183 
890 1.55885e+09 0.029911 
891 1.55885e+09 0.028408 
892 1.55885e+09 0.032486 
893 1.55885e+09 0.020855 
894 1.55885e+09 0.025835 
895 1.55885e+09 0.025071 
896 1.55885e+09 0.026906 
897 1.55885e+09 0.029083 
898 1.55885e+09 0.030573 
899 1.55885e+09 0.024459 
900 1.55885e+09 0.025001 
901 1.55885e+09 0.025001 
902 1.55885e+09 0.028674 
903 1.55885e+09 0.024999 
904 1.55885e+09 0.024999 
905 1.55885e+09 0.030458 
906 1.55885e+09 0.024973 
907 1.55885e+09 0.024251 
908 1.55885e+09 0.026728 
909 1.55885e+09 0.028250 
910 1.55885e+09 0.030214 
911 1.55885e+09 0.023669 
912 1.55885e+09 0.024982 
913 1.55885e+09 0.024243 
914 1.55885e+09 0.026665 
915 1.55885e+09 0.024439 
916 1.55885e+09 0.026513 
917 1.55885e+09 0.030222 
918 1.55885e+09 0.023987 
919 1.55885e+09 0.024928 
920 1.55885e+09 0.030288 
921 1.55885e+09 0.028639 
922 1.55885e+09 0.027393 
923 1.55885e+09 0.032072 
924 1.55885e+09 0.020207 
925 1.55885e+09 0.024000 
926 1.55885e+09 0.024904 
927 1.55885e+09 0.030224 
928 1.55885e+09 0.027971 
929 1.55885e+09 0.030945 
930 1.55885e+09 0.023443 
931 1.55885e+09 0.020246 
932 1.55885e+09 0.025002 
933 1.55885e+09 0.024995 
934 1.55885e+09 0.028676 
935 1.55885e+09 0.025002 
936 1.55885e+09 0.025000 
937 1.55885e+09 0.030450 
938 1.55885e+09 0.025076 
939 1.55885e+09 0.025802 
940 1.55885e+09 0.030041 
941 1.55885e+09 0.029142 
942 1.55885e+09 0.031329 
943 1.55885e+09 0.024520 
944 1.55885e+09 0.020847 
945 1.55885e+09 0.025050 
946 1.55885e+09 0.025916 
947 1.55885e+09 0.026787 
948 1.55885e+09 0.025417 
949 1.55885e+09 0.027291 
950 1.55885e+09 0.030482 
951 1.55885e+09 0.025525 
952 1.55885e+09 0.025022 
953 1.55885e+09 0.030170 
954 1.55885e+09 0.029708 
955 1.55885e+09 0.028215 
956 1.55885e+09 0.032436 
957 1.55885e+09 0.020716 
958 1.55885e+09 0.026317 
959 1.55885e+09 0.025142 
960 1.55885e+09 0.026990 
961 1.55885e+09 0.029356 
962 1.55885e+09 0.030660 
963 1.55885e+09 0.024689 
964 1.55885e+09 0.025002 
965 1.55885e+09 0.025002 
966 1.55885e+09 0.028672 
967 1.55885e+09 0.024997 
968 1.55885e+09 0.024994 
969 1.55885e+09 0.030459 
970 1.55885e+09 0.024955 
971 1.55885e+09 0.024153 
972 1.55885e+09 0.026696 
973 1.55885e+09 0.028195 
974 1.55885e+09 0.030187 
975 1.55885e+09 0.023620 
976 1.55885e+09 0.024976 
977 1.55885e+09 0.024034 
978 1.55885e+09 0.026607 
979 1.55885e+09 0.024317 
980 1.55885e+09 0.026411 
981 1.55885e+09 0.030132 
982 1.55885e+09 0.024164 
983 1.55885e+09 0.024944 
984 1.55885e+09 0.030300 
985 1.55885e+09 0.027879 
986 1.55885e+09 0.026707 
987 1.55885e+09 0.032041 
988 1.55885e+09 0.020280 
989 1.55885e+09 0.024139 
990 1.55885e+09 0.024953 
991 1.55885e+09 0.030190 
992 1.55885e+09 0.028106 
993 1.55885e+09 0.030870 
994 1.55885e+09 0.023538 
995 1.55885e+09 0.020330 
996 1.55885e+09 0.025000 
997 1.55885e+09 0.025000 
998 1.55885e+09 0.028675 
999 1.55885e+09 0.025006 
1000 1.55885e+09 0.025003 
1001 1.55885e+09 0.030456 
1002 1.55885e+09 0.025026 
1003 1.55885e+09 0.025522 
1004 1.55885e+09 0.030110 
1005 1.55885e+09 0.028944 
1006 1.55885e+09 0.031363 
1007 1.55885e+09 0.024355 
1008 1.55885e+09 0.020743 
1009 1.55885e+09 0.025110 
1010 1.55885e+09 0.026327 
1011 1.55885e+09 0.026906 
1012 1.55885e+09 0.025640 
1013 1.55885e+09 0.027506 
1014 1.55885e+09 0.030571 
1015 1.55885e+09 0.024425 
1016 1.55885e+09 0.024987 
1017 1.55885e+09 0.030315 
1018 1.55885e+09 0.028069 
1019 1.55885e+09 0.026879 
1020 1.55885e+09 0.032100 
1021 1.55885e+09 0.020401 
1022 1.55885e+09 0.023653 
1023 1.55885e+09 0.024917 
1024 1.55885e+09 0.026574 
1025 1.55885e+09 0.027908 
1026 1.55885e+09 0.030058 
1027 1.55885e+09 0.023354 
1028 1.55885e+09 0.024999 
1029 1.55885e+09 0.024999 
1030 1.55885e+09 0.028678 
1031 1.55885e+09 0.025005 
1032 1.55885e+09 0.025007 
1033 1.55885e+09 0.030448 
1034 1.55885e+09 0.025060 
1035 1.55885e+09 0.025779 
1036 1.55885e+09 0.026891 
1037 1.55885e+09 0.029049 
1038 1.55885e+09 0.030562 
1039 1.55885e+09 0.024435 
1040 1.55885e+09 0.025007 
1041 1.55885e+09 0.025657 
1042 1.55885e+09 0.026721 
1043 1.55885e+09 0.025272 
1044 1.55885e+09 0.027145 
1045 1.55885e+09 0.030440 
1046 1.55885e+09 0.026033 
1047 1.55885e+09 0.025122 
1048 1.55885e+09 0.030191 
1049 1.55885e+09 0.029194 
1050 1.55885e+09 0.027773 
1051 1.55885e+09 0.032462 
1052 1.55885e+09 0.020952 
1053 1.55885e+09 0.026197 
1054 1.55885e+09 0.025144 
1055 1.55885e+09 0.030027 
1056 1.55885e+09 0.029394 
1057 1.55885e+09 0.031422 
1058 1.55885e+09 0.024732 
1059 1.55885e+09 0.020985 
1060 1.55885e+09 0.024998 
1061 1.55885e+09 0.025006 
1062 1.55885e+09 0.028676 
1063 1.55885e+09 0.024999 
1064 1.55885e+09 0.025002 
1065 1.55885e+09 0.030457 
1066 1.55885e+09 0.024977 
1067 1.55885e+09 0.024321 
1068 1.55885e+09 0.030192 
1069 1.55885e+09 0.028232 
1070 1.55885e+09 0.030926 
1071 1.55885e+09 0.023649 
1072 1.55885e+09 0.020404 
1073 1.55885e+09 0.024962 
1074 1.55885e+09 0.023736 
1075 1.55885e+09 0.026535 
1076 1.55885e+09 0.024135 
1077 1.55885e+09 0.026259 
1078 1.55885e+09 0.030068 
1079 1.55885e+09 0.025001 
1080 1.55885e+09 0.020862 
1081 1.55885e+09 0.024894 
1082 1.55885e+09 0.024992 
1083 1.55885e+09 0.020558 
1084 1.55885e+09 0.026893 
1085 1.55885e+09 0.024998 
1086 1.55885e+09 0.026960 
1087 1.55885e+09 0.020447 
1088 1.55885e+09 0.025001 
1089 1.55885e+09 0.020411 
1090 1.55885e+09 0.026928 
1091 1.55885e+09 0.025001 
1092 1.55885e+09 0.020411 
1093 1.55885e+09 0.026918 
1094 1.55885e+09 0.025001 
1095 1.55885e+09 0.020405 
1096 1.55885e+09 0.026918 
1097 1.55885e+09 0.024998 
1098 1.55885e+09 0.020413 
1099 1.55885e+09 0.026922 
1100 1.55885e+09 0.025001 
1101 1.55885e+09 0.020405 
1102 1.55885e+09 0.026922 
1103 1.55885e+09 0.025001 
1104 1.55885e+09 0.020405 
1105 1.55885e+09 0.026922 
1106 1.55885e+09 0.024998 
1107 1.55885e+09 0.020317 
1108 1.55885e+09 0.026922 
1109 1.55885e+09 0.021170 
1110 1.55885e+09 0.026756 
1111 1.55885e+09 0.024998 
1112 1.55885e+09 0.020584 
1113 1.55885e+09 0.024952 
1114 1.55885e+09 0.025001 
1115 1.55885e+09 0.027627 
1116 1.55885e+09 0.020865 
1117 1.55885e+09 0.025001 
1118 1.55885e+09 0.024201 
1119 1.55885e+09 0.026511 
1120 1.55885e+09 0.024998 
1121 1.55885e+09 0.028523 
1122 1.55885e+09 0.021736 
1123 1.55885e+09 0.025001 
1124 1.55885e+09 0.023279 
1125 1.55885e+09 0.024053 
1126 1.55885e+09 0.025001 
1127 1.55885e+09 0.022316 
1128 1.55885e+09 0.022648 
1129 1.55885e+09 0.025001 
1130 1.55885e+09 0.022825 
1131 1.55885e+09 0.023706 
1132 1.55885e+09 0.024998 
1133 1.55885e+09 0.021441 
1134 1.55885e+09 0.023846 
1135 1.55885e+09 0.025001 
1136 1.55885e+09 0.023188 
1137 1.55885e+09 0.021208 
1138 1.55885e+09 0.025001 
1139 1.55885e+09 0.020379 
1140 1.55885e+09 0.019228 
1141 1.55885e+09 0.019803 
1142 1.55885e+09 0.021200 
1143 1.55885e+09 0.025001 
1144 1.55885e+09 0.029899 
1145 1.55885e+09 0.019676 