LAMMPS DATA FILE 

14926 atoms 
33816 bonds 

4 atom types 
33816 bond types 

-2.703475 2.703905 xlo xhi 
-2.697206 2.699746 ylo yhi 
-0.006746 0.006746 zlo zhi 

Bond Coeffs # harmonic 

1 1.55885e+09 0.025001 
2 1.55885e+09 0.025001 
3 1.55885e+09 0.023147 
4 1.55885e+09 0.029247 
5 1.55885e+09 0.017833 
6 1.55885e+09 0.020619 
7 1.55885e+09 0.025001 
8 1.55885e+09 0.024996 
9 1.55885e+09 0.023234 
10 1.55885e+09 0.029272 
11 1.55885e+09 0.017853 
12 1.55885e+09 0.020442 
13 1.55885e+09 0.025001 
14 1.55885e+09 0.025001 
15 1.55885e+09 0.021966 
16 1.55885e+09 0.027235 
17 1.55885e+09 0.017535 
18 1.55885e+09 0.025001 
19 1.55885e+09 0.025001 
20 1.55885e+09 0.021858 
21 1.55885e+09 0.027169 
22 1.55885e+09 0.017709 
23 1.55885e+09 0.024998 
24 1.55885e+09 0.025000 
25 1.55885e+09 0.022879 
26 1.55885e+09 0.027068 
27 1.55885e+09 0.017848 
28 1.55885e+09 0.020633 
29 1.55885e+09 0.024999 
30 1.55885e+09 0.025000 
31 1.55885e+09 0.023079 
32 1.55885e+09 0.029207 
33 1.55885e+09 0.017818 
34 1.55885e+09 0.020762 
35 1.55885e+09 0.025000 
36 1.55885e+09 0.024999 
37 1.55885e+09 0.023117 
38 1.55885e+09 0.026979 
39 1.55885e+09 0.017389 
40 1.55885e+09 0.020473 
41 1.55885e+09 0.024999 
42 1.55885e+09 0.025000 
43 1.55885e+09 0.023165 
44 1.55885e+09 0.026917 
45 1.55885e+09 0.017412 
46 1.55885e+09 0.020339 
47 1.55885e+09 0.025002 
48 1.55885e+09 0.025002 
49 1.55885e+09 0.022918 
50 1.55885e+09 0.027320 
51 1.55885e+09 0.017786 
52 1.55885e+09 0.020586 
53 1.55885e+09 0.025003 
54 1.55885e+09 0.024992 
55 1.55885e+09 0.021689 
56 1.55885e+09 0.022641 
57 1.55885e+09 0.027164 
58 1.55885e+09 0.018957 
59 1.55885e+09 0.025002 
60 1.55885e+09 0.025002 
61 1.55885e+09 0.023343 
62 1.55885e+09 0.027320 
63 1.55885e+09 0.017371 
64 1.55885e+09 0.020015 
65 1.55885e+09 0.025003 
66 1.55885e+09 0.024992 
67 1.55885e+09 0.023363 
68 1.55885e+09 0.027503 
69 1.55885e+09 0.017316 
70 1.55885e+09 0.020059 
71 1.55885e+09 0.025001 
72 1.55885e+09 0.025001 
73 1.55885e+09 0.022863 
74 1.55885e+09 0.026926 
75 1.55885e+09 0.017879 
76 1.55885e+09 0.020660 
77 1.55885e+09 0.024996 
78 1.55885e+09 0.025001 
79 1.55885e+09 0.023145 
80 1.55885e+09 0.029235 
81 1.55885e+09 0.017840 
82 1.55885e+09 0.020631 
83 1.55885e+09 0.025001 
84 1.55885e+09 0.025001 
85 1.55885e+09 0.021639 
86 1.55885e+09 0.022540 
87 1.55885e+09 0.027107 
88 1.55885e+09 0.019217 
89 1.55885e+09 0.025001 
90 1.55885e+09 0.025001 
91 1.55885e+09 0.023105 
92 1.55885e+09 0.026925 
93 1.55885e+09 0.017386 
94 1.55885e+09 0.020460 
95 1.55885e+09 0.025003 
96 1.55885e+09 0.025002 
97 1.55885e+09 0.023441 
98 1.55885e+09 0.029119 
99 1.55885e+09 0.017351 
100 1.55885e+09 0.020350 
101 1.55885e+09 0.025003 
102 1.55885e+09 0.024999 
103 1.55885e+09 0.021679 
104 1.55885e+09 0.022515 
105 1.55885e+09 0.027257 
106 1.55885e+09 0.019234 
107 1.55885e+09 0.025003 
108 1.55885e+09 0.025003 
109 1.55885e+09 0.023145 
110 1.55885e+09 0.026975 
111 1.55885e+09 0.017384 
112 1.55885e+09 0.020384 
113 1.55885e+09 0.025003 
114 1.55885e+09 0.024999 
115 1.55885e+09 0.021824 
116 1.55885e+09 0.026788 
117 1.55885e+09 0.017848 
118 1.55885e+09 0.024999 
119 1.55885e+09 0.025000 
120 1.55885e+09 0.022945 
121 1.55885e+09 0.027324 
122 1.55885e+09 0.017798 
123 1.55885e+09 0.021092 
124 1.55885e+09 0.025000 
125 1.55885e+09 0.024999 
126 1.55885e+09 0.022948 
127 1.55885e+09 0.027244 
128 1.55885e+09 0.017829 
129 1.55885e+09 0.021061 
130 1.55885e+09 0.025000 
131 1.55885e+09 0.025000 
132 1.55885e+09 0.021921 
133 1.55885e+09 0.027114 
134 1.55885e+09 0.017531 
135 1.55885e+09 0.025000 
136 1.55885e+09 0.025000 
137 1.55885e+09 0.023327 
138 1.55885e+09 0.027382 
139 1.55885e+09 0.017341 
140 1.55885e+09 0.020087 
141 1.55885e+09 0.025000 
142 1.55885e+09 0.025000 
143 1.55885e+09 0.022841 
144 1.55885e+09 0.026972 
145 1.55885e+09 0.017867 
146 1.55885e+09 0.021273 
147 1.55885e+09 0.025000 
148 1.55885e+09 0.025000 
149 1.55885e+09 0.022824 
150 1.55885e+09 0.027047 
151 1.55885e+09 0.017838 
152 1.55885e+09 0.021326 
153 1.55885e+09 0.025000 
154 1.55885e+09 0.025000 
155 1.55885e+09 0.021746 
156 1.55885e+09 0.026759 
157 1.55885e+09 0.017804 
158 1.55885e+09 0.025000 
159 1.55885e+09 0.025000 
160 1.55885e+09 0.021748 
161 1.55885e+09 0.026721 
162 1.55885e+09 0.017809 
163 1.55885e+09 0.024998 
164 1.55885e+09 0.025002 
165 1.55885e+09 0.022985 
166 1.55885e+09 0.027402 
167 1.55885e+09 0.017779 
168 1.55885e+09 0.021037 
169 1.55885e+09 0.024998 
170 1.55885e+09 0.024999 
171 1.55885e+09 0.022917 
172 1.55885e+09 0.027292 
173 1.55885e+09 0.017805 
174 1.55885e+09 0.020599 
175 1.55885e+09 0.024999 
176 1.55885e+09 0.025007 
177 1.55885e+09 0.023191 
178 1.55885e+09 0.029258 
179 1.55885e+09 0.017846 
180 1.55885e+09 0.020525 
181 1.55885e+09 0.024998 
182 1.55885e+09 0.024999 
183 1.55885e+09 0.021944 
184 1.55885e+09 0.027137 
185 1.55885e+09 0.017501 
186 1.55885e+09 0.024996 
187 1.55885e+09 0.025000 
188 1.55885e+09 0.022156 
189 1.55885e+09 0.029175 
190 1.55885e+09 0.017633 
191 1.55885e+09 0.024996 
192 1.55885e+09 0.025001 
193 1.55885e+09 0.022985 
194 1.55885e+09 0.027351 
195 1.55885e+09 0.017802 
196 1.55885e+09 0.021011 
197 1.55885e+09 0.025001 
198 1.55885e+09 0.024996 
199 1.55885e+09 0.023335 
200 1.55885e+09 0.027436 
201 1.55885e+09 0.017324 
202 1.55885e+09 0.020087 
203 1.55885e+09 0.024996 
204 1.55885e+09 0.025000 
205 1.55885e+09 0.021854 
206 1.55885e+09 0.027079 
207 1.55885e+09 0.017764 
208 1.55885e+09 0.025001 
209 1.55885e+09 0.025000 
210 1.55885e+09 0.022807 
211 1.55885e+09 0.026963 
212 1.55885e+09 0.017863 
213 1.55885e+09 0.021344 
214 1.55885e+09 0.025000 
215 1.55885e+09 0.025001 
216 1.55885e+09 0.021692 
217 1.55885e+09 0.022537 
218 1.55885e+09 0.027256 
219 1.55885e+09 0.019176 
220 1.55885e+09 0.025000 
221 1.55885e+09 0.025001 
222 1.55885e+09 0.021789 
223 1.55885e+09 0.026768 
224 1.55885e+09 0.017749 
225 1.55885e+09 0.025000 
226 1.55885e+09 0.025001 
227 1.55885e+09 0.023163 
228 1.55885e+09 0.027079 
229 1.55885e+09 0.017371 
230 1.55885e+09 0.020387 
231 1.55885e+09 0.025000 
232 1.55885e+09 0.025000 
233 1.55885e+09 0.021563 
234 1.55885e+09 0.022715 
235 1.55885e+09 0.027601 
236 1.55885e+09 0.018871 
237 1.55885e+09 0.025000 
238 1.55885e+09 0.025000 
239 1.55885e+09 0.021570 
240 1.55885e+09 0.022700 
241 1.55885e+09 0.027574 
242 1.55885e+09 0.018888 
243 1.55885e+09 0.025000 
244 1.55885e+09 0.025001 
245 1.55885e+09 0.021604 
246 1.55885e+09 0.027051 
247 1.55885e+09 0.017602 
248 1.55885e+09 0.025001 
249 1.55885e+09 0.025001 
250 1.55885e+09 0.021631 
251 1.55885e+09 0.026995 
252 1.55885e+09 0.017586 
253 1.55885e+09 0.025000 
254 1.55885e+09 0.025001 
255 1.55885e+09 0.021620 
256 1.55885e+09 0.022511 
257 1.55885e+09 0.027171 
258 1.55885e+09 0.019197 
259 1.55885e+09 0.025001 
260 1.55885e+09 0.025001 
261 1.55885e+09 0.021708 
262 1.55885e+09 0.022582 
263 1.55885e+09 0.027290 
264 1.55885e+09 0.019047 
265 1.55885e+09 0.025001 
266 1.55885e+09 0.025001 
267 1.55885e+09 0.023081 
268 1.55885e+09 0.029033 
269 1.55885e+09 0.017824 
270 1.55885e+09 0.020741 
271 1.55885e+09 0.025001 
272 1.55885e+09 0.025001 
273 1.55885e+09 0.021425 
274 1.55885e+09 0.026694 
275 1.55885e+09 0.017876 
276 1.55885e+09 0.024998 
277 1.55885e+09 0.024998 
278 1.55885e+09 0.021981 
279 1.55885e+09 0.029104 
280 1.55885e+09 0.017845 
281 1.55885e+09 0.024998 
282 1.55885e+09 0.025003 
283 1.55885e+09 0.022758 
284 1.55885e+09 0.026878 
285 1.55885e+09 0.017879 
286 1.55885e+09 0.021444 
287 1.55885e+09 0.025003 
288 1.55885e+09 0.025003 
289 1.55885e+09 0.021814 
290 1.55885e+09 0.026706 
291 1.55885e+09 0.017867 
292 1.55885e+09 0.025003 
293 1.55885e+09 0.024998 
294 1.55885e+09 0.021109 
295 1.55885e+09 0.029149 
296 1.55885e+09 0.017858 
297 1.55885e+09 0.024998 
298 1.55885e+09 0.024992 
299 1.55885e+09 0.021605 
300 1.55885e+09 0.022701 
301 1.55885e+09 0.027518 
302 1.55885e+09 0.018809 
303 1.55885e+09 0.025002 
304 1.55885e+09 0.024992 
305 1.55885e+09 0.021542 
306 1.55885e+09 0.022752 
307 1.55885e+09 0.027694 
308 1.55885e+09 0.018836 
309 1.55885e+09 0.025001 
310 1.55885e+09 0.024998 
311 1.55885e+09 0.021571 
312 1.55885e+09 0.027055 
313 1.55885e+09 0.017704 
314 1.55885e+09 0.025002 
315 1.55885e+09 0.024991 
316 1.55885e+09 0.023528 
317 1.55885e+09 0.029160 
318 1.55885e+09 0.017376 
319 1.55885e+09 0.020164 
320 1.55885e+09 0.024999 
321 1.55885e+09 0.024999 
322 1.55885e+09 0.021594 
323 1.55885e+09 0.022491 
324 1.55885e+09 0.027201 
325 1.55885e+09 0.019269 
326 1.55885e+09 0.024999 
327 1.55885e+09 0.024999 
328 1.55885e+09 0.021635 
329 1.55885e+09 0.022534 
330 1.55885e+09 0.027155 
331 1.55885e+09 0.019130 
332 1.55885e+09 0.024999 
333 1.55885e+09 0.024999 
334 1.55885e+09 0.023231 
335 1.55885e+09 0.027120 
336 1.55885e+09 0.017378 
337 1.55885e+09 0.020240 
338 1.55885e+09 0.024999 
339 1.55885e+09 0.024999 
340 1.55885e+09 0.023432 
341 1.55885e+09 0.029115 
342 1.55885e+09 0.017353 
343 1.55885e+09 0.020370 
344 1.55885e+09 0.024998 
345 1.55885e+09 0.024998 
346 1.55885e+09 0.021550 
347 1.55885e+09 0.022761 
348 1.55885e+09 0.027689 
349 1.55885e+09 0.018806 
350 1.55885e+09 0.025002 
351 1.55885e+09 0.025002 
352 1.55885e+09 0.021528 
353 1.55885e+09 0.022696 
354 1.55885e+09 0.027642 
355 1.55885e+09 0.018971 
356 1.55885e+09 0.025002 
357 1.55885e+09 0.025002 
358 1.55885e+09 0.021113 
359 1.55885e+09 0.029151 
360 1.55885e+09 0.017856 
361 1.55885e+09 0.025002 
362 1.55885e+09 0.024994 
363 1.55885e+09 0.023587 
364 1.55885e+09 0.029186 
365 1.55885e+09 0.017396 
366 1.55885e+09 0.020060 
367 1.55885e+09 0.028676 
368 1.55885e+09 0.029629 
369 1.55885e+09 0.027200 
370 1.55885e+09 0.029451 
371 1.55885e+09 0.030579 
372 1.55885e+09 0.024683 
373 1.55885e+09 0.029645 
374 1.55885e+09 0.021143 
375 1.55885e+09 0.030048 
376 1.55885e+09 0.025524 
377 1.55885e+09 0.029233 
378 1.55885e+09 0.031425 
379 1.55885e+09 0.019715 
380 1.55885e+09 0.030330 
381 1.55885e+09 0.023848 
382 1.55885e+09 0.025942 
383 1.55885e+09 0.031174 
384 1.55885e+09 0.029441 
385 1.55885e+09 0.026733 
386 1.55885e+09 0.028293 
387 1.55885e+09 0.030366 
388 1.55885e+09 0.023714 
389 1.55885e+09 0.028673 
390 1.55885e+09 0.029630 
391 1.55885e+09 0.026603 
392 1.55885e+09 0.028117 
393 1.55885e+09 0.030333 
394 1.55885e+09 0.023584 
395 1.55885e+09 0.029574 
396 1.55885e+09 0.020040 
397 1.55885e+09 0.030280 
398 1.55885e+09 0.024242 
399 1.55885e+09 0.028052 
400 1.55885e+09 0.031253 
401 1.55885e+09 0.021224 
402 1.55885e+09 0.030040 
403 1.55885e+09 0.025600 
404 1.55885e+09 0.029321 
405 1.55885e+09 0.031439 
406 1.55885e+09 0.028676 
407 1.55885e+09 0.027115 
408 1.55885e+09 0.029254 
409 1.55885e+09 0.030574 
410 1.55885e+09 0.024547 
411 1.55885e+09 0.028680 
412 1.55885e+09 0.029635 
413 1.55885e+09 0.027079 
414 1.55885e+09 0.029188 
415 1.55885e+09 0.030572 
416 1.55885e+09 0.024508 
417 1.55885e+09 0.030442 
418 1.55885e+09 0.021398 
419 1.55885e+09 0.030028 
420 1.55885e+09 0.025769 
421 1.55885e+09 0.029502 
422 1.55885e+09 0.031441 
423 1.55885e+09 0.020235 
424 1.55885e+09 0.030286 
425 1.55885e+09 0.024441 
426 1.55885e+09 0.028265 
427 1.55885e+09 0.031273 
428 1.55885e+09 0.028684 
429 1.55885e+09 0.026425 
430 1.55885e+09 0.027794 
431 1.55885e+09 0.030240 
432 1.55885e+09 0.023292 
433 1.55885e+09 0.028670 
434 1.55885e+09 0.029629 
435 1.55885e+09 0.028667 
436 1.55885e+09 0.029631 
437 1.55885e+09 0.026421 
438 1.55885e+09 0.027799 
439 1.55885e+09 0.030230 
440 1.55885e+09 0.023284 
441 1.55885e+09 0.030445 
442 1.55885e+09 0.020219 
443 1.55885e+09 0.030276 
444 1.55885e+09 0.024420 
445 1.55885e+09 0.026521 
446 1.55885e+09 0.031253 
447 1.55885e+09 0.021408 
448 1.55885e+09 0.030035 
449 1.55885e+09 0.025770 
450 1.55885e+09 0.029511 
451 1.55885e+09 0.031440 
452 1.55885e+09 0.029135 
453 1.55885e+09 0.027070 
454 1.55885e+09 0.029170 
455 1.55885e+09 0.030567 
456 1.55885e+09 0.024492 
457 1.55885e+09 0.028685 
458 1.55885e+09 0.029639 
459 1.55885e+09 0.027115 
460 1.55885e+09 0.029268 
461 1.55885e+09 0.030574 
462 1.55885e+09 0.024557 
463 1.55885e+09 0.029566 
464 1.55885e+09 0.021228 
465 1.55885e+09 0.030039 
466 1.55885e+09 0.025603 
467 1.55885e+09 0.029324 
468 1.55885e+09 0.031435 
469 1.55885e+09 0.020040 
470 1.55885e+09 0.030270 
471 1.55885e+09 0.024257 
472 1.55885e+09 0.028060 
473 1.55885e+09 0.031255 
474 1.55885e+09 0.029435 
475 1.55885e+09 0.026612 
476 1.55885e+09 0.028113 
477 1.55885e+09 0.030334 
478 1.55885e+09 0.023590 
479 1.55885e+09 0.029179 
480 1.55885e+09 0.030440 
481 1.55885e+09 0.026724 
482 1.55885e+09 0.028281 
483 1.55885e+09 0.030363 
484 1.55885e+09 0.023704 
485 1.55885e+09 0.029576 
486 1.55885e+09 0.019723 
487 1.55885e+09 0.030353 
488 1.55885e+09 0.023867 
489 1.55885e+09 0.027717 
490 1.55885e+09 0.031198 
491 1.55885e+09 0.021135 
492 1.55885e+09 0.030042 
493 1.55885e+09 0.025515 
494 1.55885e+09 0.029227 
495 1.55885e+09 0.031430 
496 1.55885e+09 0.029426 
497 1.55885e+09 0.027206 
498 1.55885e+09 0.029457 
499 1.55885e+09 0.030578 
500 1.55885e+09 0.024684 
501 1.55885e+09 0.028674 
502 1.55885e+09 0.030469 
503 1.55885e+09 0.023948 
504 1.55885e+09 0.024938 
505 1.55885e+09 0.020293 
506 1.55885e+09 0.030215 
507 1.55885e+09 0.027999 
508 1.55885e+09 0.030803 
509 1.55885e+09 0.023423 
510 1.55885e+09 0.023231 
511 1.55885e+09 0.024979 
512 1.55885e+09 0.026339 
513 1.55885e+09 0.028365 
514 1.55885e+09 0.027876 
515 1.55885e+09 0.030206 
516 1.55885e+09 0.025002 
517 1.55885e+09 0.025000 
518 1.55885e+09 0.030441 
519 1.55885e+09 0.025005 
520 1.55885e+09 0.025005 
521 1.55885e+09 0.028676 
522 1.55885e+09 0.025132 
523 1.55885e+09 0.026620 
524 1.55885e+09 0.026847 
525 1.55885e+09 0.030285 
526 1.55885e+09 0.029083 
527 1.55885e+09 0.030880 
528 1.55885e+09 0.025222 
529 1.55885e+09 0.026708 
530 1.55885e+09 0.021163 
531 1.55885e+09 0.029982 
532 1.55885e+09 0.029725 
533 1.55885e+09 0.031560 
534 1.55885e+09 0.025036 
535 1.55885e+09 0.026072 
536 1.55885e+09 0.025139 
537 1.55885e+09 0.020969 
538 1.55885e+09 0.030105 
539 1.55885e+09 0.029330 
540 1.55885e+09 0.031496 
541 1.55885e+09 0.024681 
542 1.55885e+09 0.025935 
543 1.55885e+09 0.025013 
544 1.55885e+09 0.026624 
545 1.55885e+09 0.029953 
546 1.55885e+09 0.029018 
547 1.55885e+09 0.030780 
548 1.55885e+09 0.025000 
549 1.55885e+09 0.024999 
550 1.55885e+09 0.029698 
551 1.55885e+09 0.025004 
552 1.55885e+09 0.025006 
553 1.55885e+09 0.029423 
554 1.55885e+09 0.025012 
555 1.55885e+09 0.024107 
556 1.55885e+09 0.026579 
557 1.55885e+09 0.028900 
558 1.55885e+09 0.028284 
559 1.55885e+09 0.030414 
560 1.55885e+09 0.024857 
561 1.55885e+09 0.023297 
562 1.55885e+09 0.020011 
563 1.55885e+09 0.030265 
564 1.55885e+09 0.027521 
565 1.55885e+09 0.030734 
566 1.55885e+09 0.022998 
567 1.55885e+09 0.026636 
568 1.55885e+09 0.025210 
569 1.55885e+09 0.030142 
570 1.55885e+09 0.021172 
571 1.55885e+09 0.030479 
572 1.55885e+09 0.028773 
573 1.55885e+09 0.032650 
574 1.55885e+09 0.025815 
575 1.55885e+09 0.025034 
576 1.55885e+09 0.026838 
577 1.55885e+09 0.029039 
578 1.55885e+09 0.030581 
579 1.55885e+09 0.024457 
580 1.55885e+09 0.024997 
581 1.55885e+09 0.025005 
582 1.55885e+09 0.029164 
583 1.55885e+09 0.025002 
584 1.55885e+09 0.025004 
585 1.55885e+09 0.029696 
586 1.55885e+09 0.024933 
587 1.55885e+09 0.023769 
588 1.55885e+09 0.030226 
589 1.55885e+09 0.020224 
590 1.55885e+09 0.027872 
591 1.55885e+09 0.030759 
592 1.55885e+09 0.023308 
593 1.55885e+09 0.024960 
594 1.55885e+09 0.023677 
595 1.55885e+09 0.026438 
596 1.55885e+09 0.028651 
597 1.55885e+09 0.028071 
598 1.55885e+09 0.030315 
599 1.55885e+09 0.023616 
600 1.55885e+09 0.024998 
601 1.55885e+09 0.026437 
602 1.55885e+09 0.028603 
603 1.55885e+09 0.028047 
604 1.55885e+09 0.030302 
605 1.55885e+09 0.023883 
606 1.55885e+09 0.024906 
607 1.55885e+09 0.030253 
608 1.55885e+09 0.020229 
609 1.55885e+09 0.027923 
610 1.55885e+09 0.030899 
611 1.55885e+09 0.023367 
612 1.55885e+09 0.024994 
613 1.55885e+09 0.025001 
614 1.55885e+09 0.029436 
615 1.55885e+09 0.025002 
616 1.55885e+09 0.025003 
617 1.55885e+09 0.029695 
618 1.55885e+09 0.025247 
619 1.55885e+09 0.026649 
620 1.55885e+09 0.030092 
621 1.55885e+09 0.021199 
622 1.55885e+09 0.029728 
623 1.55885e+09 0.031615 
624 1.55885e+09 0.025005 
625 1.55885e+09 0.025011 
626 1.55885e+09 0.025790 
627 1.55885e+09 0.026655 
628 1.55885e+09 0.029886 
629 1.55885e+09 0.028953 
630 1.55885e+09 0.030765 
631 1.55885e+09 0.023206 
632 1.55885e+09 0.024876 
633 1.55885e+09 0.030324 
634 1.55885e+09 0.028101 
635 1.55885e+09 0.019932 
636 1.55885e+09 0.026846 
637 1.55885e+09 0.031890 
638 1.55885e+09 0.024200 
639 1.55885e+09 0.024999 
640 1.55885e+09 0.026778 
641 1.55885e+09 0.028249 
642 1.55885e+09 0.030195 
643 1.55885e+09 0.023637 
644 1.55885e+09 0.025008 
645 1.55885e+09 0.025009 
646 1.55885e+09 0.029158 
647 1.55885e+09 0.025000 
648 1.55885e+09 0.025000 
649 1.55885e+09 0.029700 
650 1.55885e+09 0.025029 
651 1.55885e+09 0.025802 
652 1.55885e+09 0.029995 
653 1.55885e+09 0.020796 
654 1.55885e+09 0.029089 
655 1.55885e+09 0.031348 
656 1.55885e+09 0.024512 
657 1.55885e+09 0.025097 
658 1.55885e+09 0.026260 
659 1.55885e+09 0.026780 
660 1.55885e+09 0.030138 
661 1.55885e+09 0.029199 
662 1.55885e+09 0.030834 
663 1.55885e+09 0.027002 
664 1.55885e+09 0.025159 
665 1.55885e+09 0.026805 
666 1.55885e+09 0.030520 
667 1.55885e+09 0.029548 
668 1.55885e+09 0.030925 
669 1.55885e+09 0.026382 
670 1.55885e+09 0.025209 
671 1.55885e+09 0.030111 
672 1.55885e+09 0.021110 
673 1.55885e+09 0.029560 
674 1.55885e+09 0.031557 
675 1.55885e+09 0.024857 
676 1.55885e+09 0.025005 
677 1.55885e+09 0.025009 
678 1.55885e+09 0.029433 
679 1.55885e+09 0.024999 
680 1.55885e+09 0.024997 
681 1.55885e+09 0.029704 
682 1.55885e+09 0.024897 
683 1.55885e+09 0.023467 
684 1.55885e+09 0.030218 
685 1.55885e+09 0.020111 
686 1.55885e+09 0.027657 
687 1.55885e+09 0.030663 
688 1.55885e+09 0.023111 
689 1.55885e+09 0.024990 
690 1.55885e+09 0.023830 
691 1.55885e+09 0.026474 
692 1.55885e+09 0.028749 
693 1.55885e+09 0.028146 
694 1.55885e+09 0.030292 
695 1.55885e+09 0.026176 
696 1.55885e+09 0.025136 
697 1.55885e+09 0.030027 
698 1.55885e+09 0.029384 
699 1.55885e+09 0.031425 
700 1.55885e+09 0.024739 
701 1.55885e+09 0.020979 
702 1.55885e+09 0.026352 
703 1.55885e+09 0.025084 
704 1.55885e+09 0.026741 
705 1.55885e+09 0.030176 
706 1.55885e+09 0.029239 
707 1.55885e+09 0.030840 
708 1.55885e+09 0.025008 
709 1.55885e+09 0.025005 
710 1.55885e+09 0.029696 
711 1.55885e+09 0.025007 
712 1.55885e+09 0.025002 
713 1.55885e+09 0.029425 
714 1.55885e+09 0.024961 
715 1.55885e+09 0.023458 
716 1.55885e+09 0.026375 
717 1.55885e+09 0.028515 
718 1.55885e+09 0.027963 
719 1.55885e+09 0.030268 
720 1.55885e+09 0.024933 
721 1.55885e+09 0.023474 
722 1.55885e+09 0.026567 
723 1.55885e+09 0.027822 
724 1.55885e+09 0.030007 
725 1.55885e+09 0.023257 
726 1.55885e+09 0.023919 
727 1.55885e+09 0.024919 
728 1.55885e+09 0.030255 
729 1.55885e+09 0.027947 
730 1.55885e+09 0.030914 
731 1.55885e+09 0.023391 
732 1.55885e+09 0.020247 
733 1.55885e+09 0.023925 
734 1.55885e+09 0.024944 
735 1.55885e+09 0.030321 
736 1.55885e+09 0.028626 
737 1.55885e+09 0.027271 
738 1.55885e+09 0.032069 
739 1.55885e+09 0.020215 
740 1.55885e+09 0.025001 
741 1.55885e+09 0.025002 
742 1.55885e+09 0.029697 
743 1.55885e+09 0.025001 
744 1.55885e+09 0.025002 
745 1.55885e+09 0.029161 
746 1.55885e+09 0.025084 
747 1.55885e+09 0.026263 
748 1.55885e+09 0.026767 
749 1.55885e+09 0.030141 
750 1.55885e+09 0.029196 
751 1.55885e+09 0.030833 
752 1.55885e+09 0.025129 
753 1.55885e+09 0.026076 
754 1.55885e+09 0.030098 
755 1.55885e+09 0.029329 
756 1.55885e+09 0.031495 
757 1.55885e+09 0.024681 
758 1.55885e+09 0.020961 
759 1.55885e+09 0.023470 
760 1.55885e+09 0.024900 
761 1.55885e+09 0.030215 
762 1.55885e+09 0.027668 
763 1.55885e+09 0.030667 
764 1.55885e+09 0.023114 
765 1.55885e+09 0.020110 
766 1.55885e+09 0.023795 
767 1.55885e+09 0.024984 
768 1.55885e+09 0.026588 
769 1.55885e+09 0.024172 
770 1.55885e+09 0.026364 
771 1.55885e+09 0.030071 
772 1.55885e+09 0.025007 
773 1.55885e+09 0.025003 
774 1.55885e+09 0.029704 
775 1.55885e+09 0.024997 
776 1.55885e+09 0.025003 
777 1.55885e+09 0.029138 
778 1.55885e+09 0.025176 
779 1.55885e+09 0.027020 
780 1.55885e+09 0.026814 
781 1.55885e+09 0.030534 
782 1.55885e+09 0.029540 
783 1.55885e+09 0.030901 
784 1.55885e+09 0.025167 
785 1.55885e+09 0.026556 
786 1.55885e+09 0.027010 
787 1.55885e+09 0.029482 
788 1.55885e+09 0.030699 
789 1.55885e+09 0.024798 
790 1.55885e+09 0.025833 
791 1.55885e+09 0.025052 
792 1.55885e+09 0.029999 
793 1.55885e+09 0.029112 
794 1.55885e+09 0.031348 
795 1.55885e+09 0.024527 
796 1.55885e+09 0.020807 
797 1.55885e+09 0.026149 
798 1.55885e+09 0.025127 
799 1.55885e+09 0.030171 
800 1.55885e+09 0.029260 
801 1.55885e+09 0.027739 
802 1.55885e+09 0.032494 
803 1.55885e+09 0.020976 
804 1.55885e+09 0.025007 
805 1.55885e+09 0.025009 
806 1.55885e+09 0.030457 
807 1.55885e+09 0.024999 
808 1.55885e+09 0.024999 
809 1.55885e+09 0.029161 
810 1.55885e+09 0.024953 
811 1.55885e+09 0.022978 
812 1.55885e+09 0.026265 
813 1.55885e+09 0.028166 
814 1.55885e+09 0.027468 
815 1.55885e+09 0.030152 
816 1.55885e+09 0.024983 
817 1.55885e+09 0.024229 
818 1.55885e+09 0.030282 
819 1.55885e+09 0.028189 
820 1.55885e+09 0.031001 
821 1.55885e+09 0.023590 
822 1.55885e+09 0.020390 
823 1.55885e+09 0.023836 
824 1.55885e+09 0.024941 
825 1.55885e+09 0.030323 
826 1.55885e+09 0.028534 
827 1.55885e+09 0.027339 
828 1.55885e+09 0.032038 
829 1.55885e+09 0.020181 
830 1.55885e+09 0.023728 
831 1.55885e+09 0.024949 
832 1.55885e+09 0.026641 
833 1.55885e+09 0.027972 
834 1.55885e+09 0.030079 
835 1.55885e+09 0.023397 
836 1.55885e+09 0.025000 
837 1.55885e+09 0.025000 
838 1.55885e+09 0.028677 
839 1.55885e+09 0.025003 
840 1.55885e+09 0.025002 
841 1.55885e+09 0.030440 
842 1.55885e+09 0.025105 
843 1.55885e+09 0.026242 
844 1.55885e+09 0.026937 
845 1.55885e+09 0.029295 
846 1.55885e+09 0.030649 
847 1.55885e+09 0.024654 
848 1.55885e+09 0.025077 
849 1.55885e+09 0.026235 
850 1.55885e+09 0.026767 
851 1.55885e+09 0.030081 
852 1.55885e+09 0.028893 
853 1.55885e+09 0.030830 
854 1.55885e+09 0.026098 
855 1.55885e+09 0.025101 
856 1.55885e+09 0.030149 
857 1.55885e+09 0.030103 
858 1.55885e+09 0.028555 
859 1.55885e+09 0.032545 
860 1.55885e+09 0.020942 
861 1.55885e+09 0.026140 
862 1.55885e+09 0.025145 
863 1.55885e+09 0.030102 
864 1.55885e+09 0.029381 
865 1.55885e+09 0.031510 
866 1.55885e+09 0.024718 
867 1.55885e+09 0.020994 
868 1.55885e+09 0.025004 
869 1.55885e+09 0.025003 
870 1.55885e+09 0.028672 
871 1.55885e+09 0.025000 
872 1.55885e+09 0.025000 
873 1.55885e+09 0.030457 
874 1.55885e+09 0.024917 
875 1.55885e+09 0.023827 
876 1.55885e+09 0.030261 
877 1.55885e+09 0.027882 
878 1.55885e+09 0.030891 
879 1.55885e+09 0.023332 
880 1.55885e+09 0.020210 
881 1.55885e+09 0.024978 
882 1.55885e+09 0.023750 
883 1.55885e+09 0.026598 
884 1.55885e+09 0.024137 
885 1.55885e+09 0.026281 
886 1.55885e+09 0.030127 
887 1.55885e+09 0.026163 
888 1.55885e+09 0.025124 
889 1.55885e+09 0.030156 
890 1.55885e+09 0.030146 
891 1.55885e+09 0.028600 
892 1.55885e+09 0.032557 
893 1.55885e+09 0.020976 
894 1.55885e+09 0.026196 
895 1.55885e+09 0.025108 
896 1.55885e+09 0.026941 
897 1.55885e+09 0.029274 
898 1.55885e+09 0.030643 
899 1.55885e+09 0.024630 
900 1.55885e+09 0.025002 
901 1.55885e+09 0.025002 
902 1.55885e+09 0.028673 
903 1.55885e+09 0.025000 
904 1.55885e+09 0.024999 
905 1.55885e+09 0.030457 
906 1.55885e+09 0.024961 
907 1.55885e+09 0.023845 
908 1.55885e+09 0.026667 
909 1.55885e+09 0.028036 
910 1.55885e+09 0.030112 
911 1.55885e+09 0.023459 
912 1.55885e+09 0.024975 
913 1.55885e+09 0.023834 
914 1.55885e+09 0.026609 
915 1.55885e+09 0.024191 
916 1.55885e+09 0.026323 
917 1.55885e+09 0.030141 
918 1.55885e+09 0.023615 
919 1.55885e+09 0.024913 
920 1.55885e+09 0.030311 
921 1.55885e+09 0.028364 
922 1.55885e+09 0.027192 
923 1.55885e+09 0.031982 
924 1.55885e+09 0.020084 
925 1.55885e+09 0.023631 
926 1.55885e+09 0.024885 
927 1.55885e+09 0.030249 
928 1.55885e+09 0.027734 
929 1.55885e+09 0.030839 
930 1.55885e+09 0.023209 
931 1.55885e+09 0.020123 
932 1.55885e+09 0.025001 
933 1.55885e+09 0.024996 
934 1.55885e+09 0.028667 
935 1.55885e+09 0.025004 
936 1.55885e+09 0.025003 
937 1.55885e+09 0.030447 
938 1.55885e+09 0.025124 
939 1.55885e+09 0.026148 
940 1.55885e+09 0.030020 
941 1.55885e+09 0.029364 
942 1.55885e+09 0.031412 
943 1.55885e+09 0.024718 
944 1.55885e+09 0.020967 
945 1.55885e+09 0.025090 
946 1.55885e+09 0.026315 
947 1.55885e+09 0.026826 
948 1.55885e+09 0.025634 
949 1.55885e+09 0.027485 
950 1.55885e+09 0.030538 
951 1.55885e+09 0.025753 
952 1.55885e+09 0.025034 
953 1.55885e+09 0.030142 
954 1.55885e+09 0.029860 
955 1.55885e+09 0.028326 
956 1.55885e+09 0.032490 
957 1.55885e+09 0.020783 
958 1.55885e+09 0.026891 
959 1.55885e+09 0.025220 
960 1.55885e+09 0.027054 
961 1.55885e+09 0.029663 
962 1.55885e+09 0.030758 
963 1.55885e+09 0.024949 
964 1.55885e+09 0.025004 
965 1.55885e+09 0.025003 
966 1.55885e+09 0.028672 
967 1.55885e+09 0.024998 
968 1.55885e+09 0.024998 
969 1.55885e+09 0.030459 
970 1.55885e+09 0.024944 
971 1.55885e+09 0.023780 
972 1.55885e+09 0.026648 
973 1.55885e+09 0.028003 
974 1.55885e+09 0.030089 
975 1.55885e+09 0.023424 
976 1.55885e+09 0.024981 
977 1.55885e+09 0.023602 
978 1.55885e+09 0.026560 
979 1.55885e+09 0.024052 
980 1.55885e+09 0.026217 
981 1.55885e+09 0.030035 
982 1.55885e+09 0.023791 
983 1.55885e+09 0.024930 
984 1.55885e+09 0.030330 
985 1.55885e+09 0.027612 
986 1.55885e+09 0.026509 
987 1.55885e+09 0.031947 
988 1.55885e+09 0.020161 
989 1.55885e+09 0.023752 
990 1.55885e+09 0.024929 
991 1.55885e+09 0.030218 
992 1.55885e+09 0.027860 
993 1.55885e+09 0.030754 
994 1.55885e+09 0.023301 
995 1.55885e+09 0.020218 
996 1.55885e+09 0.025001 
997 1.55885e+09 0.025002 
998 1.55885e+09 0.028675 
999 1.55885e+09 0.025000 
1000 1.55885e+09 0.025003 
1001 1.55885e+09 0.030457 
1002 1.55885e+09 0.025040 
1003 1.55885e+09 0.025749 
1004 1.55885e+09 0.030079 
1005 1.55885e+09 0.029076 
1006 1.55885e+09 0.031425 
1007 1.55885e+09 0.024486 
1008 1.55885e+09 0.020805 
1009 1.55885e+09 0.025172 
1010 1.55885e+09 0.026892 
1011 1.55885e+09 0.026966 
1012 1.55885e+09 0.025948 
1013 1.55885e+09 0.027784 
1014 1.55885e+09 0.030646 
1015 1.55885e+09 0.024180 
1016 1.55885e+09 0.024990 
1017 1.55885e+09 0.030350 
1018 1.55885e+09 0.027900 
1019 1.55885e+09 0.026764 
1020 1.55885e+09 0.032039 
1021 1.55885e+09 0.020337 
1022 1.55885e+09 0.023070 
1023 1.55885e+09 0.024908 
1024 1.55885e+09 0.026469 
1025 1.55885e+09 0.027607 
1026 1.55885e+09 0.029894 
1027 1.55885e+09 0.023048 
1028 1.55885e+09 0.024998 
1029 1.55885e+09 0.024998 
1030 1.55885e+09 0.028678 
1031 1.55885e+09 0.025006 
1032 1.55885e+09 0.024999 
1033 1.55885e+09 0.030441 
1034 1.55885e+09 0.025107 
1035 1.55885e+09 0.026190 
1036 1.55885e+09 0.026942 
1037 1.55885e+09 0.029270 
1038 1.55885e+09 0.030642 
1039 1.55885e+09 0.024629 
1040 1.55885e+09 0.025024 
1041 1.55885e+09 0.025953 
1042 1.55885e+09 0.026725 
1043 1.55885e+09 0.025443 
1044 1.55885e+09 0.027279 
1045 1.55885e+09 0.030499 
1046 1.55885e+09 0.026409 
1047 1.55885e+09 0.025167 
1048 1.55885e+09 0.030166 
1049 1.55885e+09 0.029433 
1050 1.55885e+09 0.027980 
1051 1.55885e+09 0.032531 
1052 1.55885e+09 0.021095 
1053 1.55885e+09 0.026719 
1054 1.55885e+09 0.025228 
1055 1.55885e+09 0.029982 
1056 1.55885e+09 0.029729 
1057 1.55885e+09 0.031554 
1058 1.55885e+09 0.025028 
1059 1.55885e+09 0.021161 
1060 1.55885e+09 0.025003 
1061 1.55885e+09 0.024994 
1062 1.55885e+09 0.028673 
1063 1.55885e+09 0.024998 
1064 1.55885e+09 0.024998 
1065 1.55885e+09 0.030450 
1066 1.55885e+09 0.024952 
1067 1.55885e+09 0.023958 
1068 1.55885e+09 0.030223 
1069 1.55885e+09 0.028006 
1070 1.55885e+09 0.030817 
1071 1.55885e+09 0.023429 
1072 1.55885e+09 0.020296 
1073 1.55885e+09 0.024960 
1074 1.55885e+09 0.023248 
1075 1.55885e+09 0.026464 
1076 1.55885e+09 0.023834 
1077 1.55885e+09 0.026038 
1078 1.55885e+09 0.029956 
1079 1.55885e+09 0.025001 
1080 1.55885e+09 0.020862 
1081 1.55885e+09 0.024893 
1082 1.55885e+09 0.025001 
1083 1.55885e+09 0.020559 
1084 1.55885e+09 0.026888 
1085 1.55885e+09 0.024996 
1086 1.55885e+09 0.026975 
1087 1.55885e+09 0.020445 
1088 1.55885e+09 0.025001 
1089 1.55885e+09 0.020410 
1090 1.55885e+09 0.026935 
1091 1.55885e+09 0.025001 
1092 1.55885e+09 0.020403 
1093 1.55885e+09 0.026921 
1094 1.55885e+09 0.025001 
1095 1.55885e+09 0.020403 
1096 1.55885e+09 0.026924 
1097 1.55885e+09 0.025001 
1098 1.55885e+09 0.020403 
1099 1.55885e+09 0.026924 
1100 1.55885e+09 0.025001 
1101 1.55885e+09 0.020395 
1102 1.55885e+09 0.026924 
1103 1.55885e+09 0.024996 
1104 1.55885e+09 0.020402 
1105 1.55885e+09 0.026927 
1106 1.55885e+09 0.024992 
1107 1.55885e+09 0.020306 
1108 1.55885e+09 0.026927 
1109 1.55885e+09 0.021179 
1110 1.55885e+09 0.026762 
1111 1.55885e+09 0.025001 
1112 1.55885e+09 0.020490 
1113 1.55885e+09 0.024959 
1114 1.55885e+09 0.025001 
1115 1.55885e+09 0.027635 
1116 1.55885e+09 0.020757 
1117 1.55885e+09 0.025001 
1118 1.55885e+09 0.024015 
1119 1.55885e+09 0.026480 
1120 1.55885e+09 0.025001 
1121 1.55885e+09 0.028394 
1122 1.55885e+09 0.021650 
1123 1.55885e+09 0.025001 
1124 1.55885e+09 0.023296 
1125 1.55885e+09 0.023922 
1126 1.55885e+09 0.024996 
1127 1.55885e+09 0.022219 
1128 1.55885e+09 0.022725 
1129 1.55885e+09 0.025001 
1130 1.55885e+09 0.022779 
1131 1.55885e+09 0.023828 
1132 1.55885e+09 0.025001 
1133 1.55885e+09 0.021494 
1134 1.55885e+09 0.023941 
1135 1.55885e+09 0.025001 
1136 1.55885e+09 0.023244 
1137 1.55885e+09 0.021321 
1138 1.55885e+09 0.025001 
1139 1.55885e+09 0.020489 
1140 1.55885e+09 0.019262 
1141 1.55885e+09 0.019830 
1142 1.55885e+09 0.021285 
1143 1.55885e+09 0.025001 
1144 1.55885e+09 0.029928 
1145 1.55885e+09 0.019599 