LAMMPS DATA FILE 

14926 atoms 
33816 bonds 

4 atom types 
33816 bond types 

-2.699960 2.700040 xlo xhi 
-2.698810 2.701190 ylo yhi 
-0.007083 0.007083 zlo zhi 

Bond Coeffs # harmonic 

1 1.55885e+09 0.025000 
2 1.55885e+09 0.025000 
3 1.55885e+09 0.023145 
4 1.55885e+09 0.029239 
5 1.55885e+09 0.017831 
6 1.55885e+09 0.020623 
7 1.55885e+09 0.025000 
8 1.55885e+09 0.025000 
9 1.55885e+09 0.023144 
10 1.55885e+09 0.029239 
11 1.55885e+09 0.017836 
12 1.55885e+09 0.020623 
13 1.55885e+09 0.025000 
14 1.55885e+09 0.025000 
15 1.55885e+09 0.021835 
16 1.55885e+09 0.026928 
17 1.55885e+09 0.017728 
18 1.55885e+09 0.025000 
19 1.55885e+09 0.025000 
20 1.55885e+09 0.021835 
21 1.55885e+09 0.026928 
22 1.55885e+09 0.017798 
23 1.55885e+09 0.025000 
24 1.55885e+09 0.025000 
25 1.55885e+09 0.022890 
26 1.55885e+09 0.027144 
27 1.55885e+09 0.017833 
28 1.55885e+09 0.020625 
29 1.55885e+09 0.025000 
30 1.55885e+09 0.025000 
31 1.55885e+09 0.023144 
32 1.55885e+09 0.029242 
33 1.55885e+09 0.017837 
34 1.55885e+09 0.020623 
35 1.55885e+09 0.025000 
36 1.55885e+09 0.025000 
37 1.55885e+09 0.023243 
38 1.55885e+09 0.027199 
39 1.55885e+09 0.017368 
40 1.55885e+09 0.020233 
41 1.55885e+09 0.025000 
42 1.55885e+09 0.025000 
43 1.55885e+09 0.023238 
44 1.55885e+09 0.027193 
45 1.55885e+09 0.017370 
46 1.55885e+09 0.020235 
47 1.55885e+09 0.025000 
48 1.55885e+09 0.025000 
49 1.55885e+09 0.022890 
50 1.55885e+09 0.027144 
51 1.55885e+09 0.017833 
52 1.55885e+09 0.020625 
53 1.55885e+09 0.025000 
54 1.55885e+09 0.025000 
55 1.55885e+09 0.021680 
56 1.55885e+09 0.022620 
57 1.55885e+09 0.027147 
58 1.55885e+09 0.019020 
59 1.55885e+09 0.025000 
60 1.55885e+09 0.025000 
61 1.55885e+09 0.023243 
62 1.55885e+09 0.027199 
63 1.55885e+09 0.017368 
64 1.55885e+09 0.020233 
65 1.55885e+09 0.025000 
66 1.55885e+09 0.025000 
67 1.55885e+09 0.023238 
68 1.55885e+09 0.027193 
69 1.55885e+09 0.017370 
70 1.55885e+09 0.020235 
71 1.55885e+09 0.025000 
72 1.55885e+09 0.025000 
73 1.55885e+09 0.022887 
74 1.55885e+09 0.027146 
75 1.55885e+09 0.017831 
76 1.55885e+09 0.020623 
77 1.55885e+09 0.025000 
78 1.55885e+09 0.025000 
79 1.55885e+09 0.023144 
80 1.55885e+09 0.029239 
81 1.55885e+09 0.017836 
82 1.55885e+09 0.020623 
83 1.55885e+09 0.025000 
84 1.55885e+09 0.025000 
85 1.55885e+09 0.021673 
86 1.55885e+09 0.022620 
87 1.55885e+09 0.027149 
88 1.55885e+09 0.019015 
89 1.55885e+09 0.025000 
90 1.55885e+09 0.025000 
91 1.55885e+09 0.023237 
92 1.55885e+09 0.027188 
93 1.55885e+09 0.017369 
94 1.55885e+09 0.020235 
95 1.55885e+09 0.025000 
96 1.55885e+09 0.025000 
97 1.55885e+09 0.023497 
98 1.55885e+09 0.029149 
99 1.55885e+09 0.017370 
100 1.55885e+09 0.020235 
101 1.55885e+09 0.025000 
102 1.55885e+09 0.025000 
103 1.55885e+09 0.021675 
104 1.55885e+09 0.022618 
105 1.55885e+09 0.027422 
106 1.55885e+09 0.019025 
107 1.55885e+09 0.025000 
108 1.55885e+09 0.025000 
109 1.55885e+09 0.023248 
110 1.55885e+09 0.027200 
111 1.55885e+09 0.017370 
112 1.55885e+09 0.020234 
113 1.55885e+09 0.025000 
114 1.55885e+09 0.025000 
115 1.55885e+09 0.021836 
116 1.55885e+09 0.026926 
117 1.55885e+09 0.017812 
118 1.55885e+09 0.025000 
119 1.55885e+09 0.025000 
120 1.55885e+09 0.022890 
121 1.55885e+09 0.027145 
122 1.55885e+09 0.017834 
123 1.55885e+09 0.021188 
124 1.55885e+09 0.025000 
125 1.55885e+09 0.025000 
126 1.55885e+09 0.022890 
127 1.55885e+09 0.027146 
128 1.55885e+09 0.017834 
129 1.55885e+09 0.021188 
130 1.55885e+09 0.025000 
131 1.55885e+09 0.025000 
132 1.55885e+09 0.021835 
133 1.55885e+09 0.026927 
134 1.55885e+09 0.017667 
135 1.55885e+09 0.025000 
136 1.55885e+09 0.025000 
137 1.55885e+09 0.023244 
138 1.55885e+09 0.027196 
139 1.55885e+09 0.017369 
140 1.55885e+09 0.020234 
141 1.55885e+09 0.025000 
142 1.55885e+09 0.025000 
143 1.55885e+09 0.022890 
144 1.55885e+09 0.027145 
145 1.55885e+09 0.017834 
146 1.55885e+09 0.021188 
147 1.55885e+09 0.025000 
148 1.55885e+09 0.025000 
149 1.55885e+09 0.022890 
150 1.55885e+09 0.027146 
151 1.55885e+09 0.017834 
152 1.55885e+09 0.021188 
153 1.55885e+09 0.025000 
154 1.55885e+09 0.025000 
155 1.55885e+09 0.021835 
156 1.55885e+09 0.026927 
157 1.55885e+09 0.017667 
158 1.55885e+09 0.025000 
159 1.55885e+09 0.025000 
160 1.55885e+09 0.021835 
161 1.55885e+09 0.026927 
162 1.55885e+09 0.017668 
163 1.55885e+09 0.025000 
164 1.55885e+09 0.025000 
165 1.55885e+09 0.022887 
166 1.55885e+09 0.027147 
167 1.55885e+09 0.017832 
168 1.55885e+09 0.021186 
169 1.55885e+09 0.025000 
170 1.55885e+09 0.025000 
171 1.55885e+09 0.022890 
172 1.55885e+09 0.027145 
173 1.55885e+09 0.017833 
174 1.55885e+09 0.020625 
175 1.55885e+09 0.025000 
176 1.55885e+09 0.025000 
177 1.55885e+09 0.023144 
178 1.55885e+09 0.029242 
179 1.55885e+09 0.017832 
180 1.55885e+09 0.020627 
181 1.55885e+09 0.025000 
182 1.55885e+09 0.025000 
183 1.55885e+09 0.021836 
184 1.55885e+09 0.026926 
185 1.55885e+09 0.017668 
186 1.55885e+09 0.025000 
187 1.55885e+09 0.025000 
188 1.55885e+09 0.022089 
189 1.55885e+09 0.029150 
190 1.55885e+09 0.017711 
191 1.55885e+09 0.025000 
192 1.55885e+09 0.025000 
193 1.55885e+09 0.022890 
194 1.55885e+09 0.027145 
195 1.55885e+09 0.017833 
196 1.55885e+09 0.021193 
197 1.55885e+09 0.025000 
198 1.55885e+09 0.025000 
199 1.55885e+09 0.023248 
200 1.55885e+09 0.027200 
201 1.55885e+09 0.017370 
202 1.55885e+09 0.020234 
203 1.55885e+09 0.025000 
204 1.55885e+09 0.025000 
205 1.55885e+09 0.021836 
206 1.55885e+09 0.026926 
207 1.55885e+09 0.017812 
208 1.55885e+09 0.025000 
209 1.55885e+09 0.025000 
210 1.55885e+09 0.022890 
211 1.55885e+09 0.027145 
212 1.55885e+09 0.017834 
213 1.55885e+09 0.021188 
214 1.55885e+09 0.025000 
215 1.55885e+09 0.025000 
216 1.55885e+09 0.021677 
217 1.55885e+09 0.022618 
218 1.55885e+09 0.027426 
219 1.55885e+09 0.019022 
220 1.55885e+09 0.025000 
221 1.55885e+09 0.025000 
222 1.55885e+09 0.021835 
223 1.55885e+09 0.026927 
224 1.55885e+09 0.017667 
225 1.55885e+09 0.025000 
226 1.55885e+09 0.025000 
227 1.55885e+09 0.023244 
228 1.55885e+09 0.027196 
229 1.55885e+09 0.017369 
230 1.55885e+09 0.020234 
231 1.55885e+09 0.025000 
232 1.55885e+09 0.025000 
233 1.55885e+09 0.021590 
234 1.55885e+09 0.022618 
235 1.55885e+09 0.027406 
236 1.55885e+09 0.019023 
237 1.55885e+09 0.025000 
238 1.55885e+09 0.025000 
239 1.55885e+09 0.021590 
240 1.55885e+09 0.022618 
241 1.55885e+09 0.027406 
242 1.55885e+09 0.019022 
243 1.55885e+09 0.025000 
244 1.55885e+09 0.025000 
245 1.55885e+09 0.021548 
246 1.55885e+09 0.026880 
247 1.55885e+09 0.017698 
248 1.55885e+09 0.025000 
249 1.55885e+09 0.025000 
250 1.55885e+09 0.021548 
251 1.55885e+09 0.026880 
252 1.55885e+09 0.017699 
253 1.55885e+09 0.025000 
254 1.55885e+09 0.025000 
255 1.55885e+09 0.021592 
256 1.55885e+09 0.022620 
257 1.55885e+09 0.027405 
258 1.55885e+09 0.019021 
259 1.55885e+09 0.025000 
260 1.55885e+09 0.025000 
261 1.55885e+09 0.021675 
262 1.55885e+09 0.022618 
263 1.55885e+09 0.027430 
264 1.55885e+09 0.019025 
265 1.55885e+09 0.025000 
266 1.55885e+09 0.025000 
267 1.55885e+09 0.023129 
268 1.55885e+09 0.029057 
269 1.55885e+09 0.017832 
270 1.55885e+09 0.020627 
271 1.55885e+09 0.025000 
272 1.55885e+09 0.025000 
273 1.55885e+09 0.021548 
274 1.55885e+09 0.026877 
275 1.55885e+09 0.017702 
276 1.55885e+09 0.025000 
277 1.55885e+09 0.025000 
278 1.55885e+09 0.022090 
279 1.55885e+09 0.029148 
280 1.55885e+09 0.017715 
281 1.55885e+09 0.025000 
282 1.55885e+09 0.025000 
283 1.55885e+09 0.022887 
284 1.55885e+09 0.027146 
285 1.55885e+09 0.017836 
286 1.55885e+09 0.021191 
287 1.55885e+09 0.025000 
288 1.55885e+09 0.025000 
289 1.55885e+09 0.021833 
290 1.55885e+09 0.026928 
291 1.55885e+09 0.017813 
292 1.55885e+09 0.025000 
293 1.55885e+09 0.025000 
294 1.55885e+09 0.021110 
295 1.55885e+09 0.029148 
296 1.55885e+09 0.017858 
297 1.55885e+09 0.025000 
298 1.55885e+09 0.025000 
299 1.55885e+09 0.021588 
300 1.55885e+09 0.022618 
301 1.55885e+09 0.027405 
302 1.55885e+09 0.019025 
303 1.55885e+09 0.025000 
304 1.55885e+09 0.025000 
305 1.55885e+09 0.021591 
306 1.55885e+09 0.022620 
307 1.55885e+09 0.027405 
308 1.55885e+09 0.019020 
309 1.55885e+09 0.025000 
310 1.55885e+09 0.025000 
311 1.55885e+09 0.021548 
312 1.55885e+09 0.026884 
313 1.55885e+09 0.017756 
314 1.55885e+09 0.025000 
315 1.55885e+09 0.025000 
316 1.55885e+09 0.023497 
317 1.55885e+09 0.029142 
318 1.55885e+09 0.017370 
319 1.55885e+09 0.020235 
320 1.55885e+09 0.025000 
321 1.55885e+09 0.025000 
322 1.55885e+09 0.021588 
323 1.55885e+09 0.022618 
324 1.55885e+09 0.027405 
325 1.55885e+09 0.019025 
326 1.55885e+09 0.025000 
327 1.55885e+09 0.025000 
328 1.55885e+09 0.021591 
329 1.55885e+09 0.022620 
330 1.55885e+09 0.027405 
331 1.55885e+09 0.019020 
332 1.55885e+09 0.025000 
333 1.55885e+09 0.025000 
334 1.55885e+09 0.023243 
335 1.55885e+09 0.027199 
336 1.55885e+09 0.017368 
337 1.55885e+09 0.020233 
338 1.55885e+09 0.025000 
339 1.55885e+09 0.025000 
340 1.55885e+09 0.023497 
341 1.55885e+09 0.029142 
342 1.55885e+09 0.017370 
343 1.55885e+09 0.020235 
344 1.55885e+09 0.025000 
345 1.55885e+09 0.025000 
346 1.55885e+09 0.021589 
347 1.55885e+09 0.022620 
348 1.55885e+09 0.027404 
349 1.55885e+09 0.019023 
350 1.55885e+09 0.025000 
351 1.55885e+09 0.025000 
352 1.55885e+09 0.021589 
353 1.55885e+09 0.022620 
354 1.55885e+09 0.027404 
355 1.55885e+09 0.019023 
356 1.55885e+09 0.025000 
357 1.55885e+09 0.025000 
358 1.55885e+09 0.021110 
359 1.55885e+09 0.029155 
360 1.55885e+09 0.017858 
361 1.55885e+09 0.025000 
362 1.55885e+09 0.025000 
363 1.55885e+09 0.023497 
364 1.55885e+09 0.029140 
365 1.55885e+09 0.017369 
366 1.55885e+09 0.020235 
367 1.55885e+09 0.028683 
368 1.55885e+09 0.029629 
369 1.55885e+09 0.026848 
370 1.55885e+09 0.028637 
371 1.55885e+09 0.030470 
372 1.55885e+09 0.024048 
373 1.55885e+09 0.029646 
374 1.55885e+09 0.020580 
375 1.55885e+09 0.030151 
376 1.55885e+09 0.024888 
377 1.55885e+09 0.028635 
378 1.55885e+09 0.031349 
379 1.55885e+09 0.020577 
380 1.55885e+09 0.030151 
381 1.55885e+09 0.024887 
382 1.55885e+09 0.026864 
383 1.55885e+09 0.031336 
384 1.55885e+09 0.029435 
385 1.55885e+09 0.026849 
386 1.55885e+09 0.028643 
387 1.55885e+09 0.030470 
388 1.55885e+09 0.024050 
389 1.55885e+09 0.028678 
390 1.55885e+09 0.029631 
391 1.55885e+09 0.026849 
392 1.55885e+09 0.028637 
393 1.55885e+09 0.030470 
394 1.55885e+09 0.024051 
395 1.55885e+09 0.029574 
396 1.55885e+09 0.020580 
397 1.55885e+09 0.030151 
398 1.55885e+09 0.024888 
399 1.55885e+09 0.028635 
400 1.55885e+09 0.031349 
401 1.55885e+09 0.020580 
402 1.55885e+09 0.030151 
403 1.55885e+09 0.024889 
404 1.55885e+09 0.028636 
405 1.55885e+09 0.031350 
406 1.55885e+09 0.028674 
407 1.55885e+09 0.026849 
408 1.55885e+09 0.028643 
409 1.55885e+09 0.030470 
410 1.55885e+09 0.024050 
411 1.55885e+09 0.028678 
412 1.55885e+09 0.029631 
413 1.55885e+09 0.026849 
414 1.55885e+09 0.028637 
415 1.55885e+09 0.030470 
416 1.55885e+09 0.024051 
417 1.55885e+09 0.030442 
418 1.55885e+09 0.020584 
419 1.55885e+09 0.030151 
420 1.55885e+09 0.024887 
421 1.55885e+09 0.028631 
422 1.55885e+09 0.031350 
423 1.55885e+09 0.020580 
424 1.55885e+09 0.030151 
425 1.55885e+09 0.024889 
426 1.55885e+09 0.028636 
427 1.55885e+09 0.031350 
428 1.55885e+09 0.028669 
429 1.55885e+09 0.026848 
430 1.55885e+09 0.028644 
431 1.55885e+09 0.030470 
432 1.55885e+09 0.024048 
433 1.55885e+09 0.028683 
434 1.55885e+09 0.029629 
435 1.55885e+09 0.028676 
436 1.55885e+09 0.029636 
437 1.55885e+09 0.026848 
438 1.55885e+09 0.028637 
439 1.55885e+09 0.030470 
440 1.55885e+09 0.024048 
441 1.55885e+09 0.030443 
442 1.55885e+09 0.020580 
443 1.55885e+09 0.030152 
444 1.55885e+09 0.024891 
445 1.55885e+09 0.026900 
446 1.55885e+09 0.031345 
447 1.55885e+09 0.020577 
448 1.55885e+09 0.030151 
449 1.55885e+09 0.024887 
450 1.55885e+09 0.028638 
451 1.55885e+09 0.031350 
452 1.55885e+09 0.029135 
453 1.55885e+09 0.026849 
454 1.55885e+09 0.028636 
455 1.55885e+09 0.030470 
456 1.55885e+09 0.024050 
457 1.55885e+09 0.028678 
458 1.55885e+09 0.029631 
459 1.55885e+09 0.026848 
460 1.55885e+09 0.028636 
461 1.55885e+09 0.030472 
462 1.55885e+09 0.024051 
463 1.55885e+09 0.029574 
464 1.55885e+09 0.020580 
465 1.55885e+09 0.030161 
466 1.55885e+09 0.024891 
467 1.55885e+09 0.028635 
468 1.55885e+09 0.031349 
469 1.55885e+09 0.020580 
470 1.55885e+09 0.030151 
471 1.55885e+09 0.024889 
472 1.55885e+09 0.028636 
473 1.55885e+09 0.031350 
474 1.55885e+09 0.029436 
475 1.55885e+09 0.026849 
476 1.55885e+09 0.028636 
477 1.55885e+09 0.030470 
478 1.55885e+09 0.024050 
479 1.55885e+09 0.029183 
480 1.55885e+09 0.030443 
481 1.55885e+09 0.026858 
482 1.55885e+09 0.028636 
483 1.55885e+09 0.030470 
484 1.55885e+09 0.024051 
485 1.55885e+09 0.029570 
486 1.55885e+09 0.020584 
487 1.55885e+09 0.030161 
488 1.55885e+09 0.024889 
489 1.55885e+09 0.028638 
490 1.55885e+09 0.031350 
491 1.55885e+09 0.020580 
492 1.55885e+09 0.030151 
493 1.55885e+09 0.024889 
494 1.55885e+09 0.028636 
495 1.55885e+09 0.031350 
496 1.55885e+09 0.029437 
497 1.55885e+09 0.026848 
498 1.55885e+09 0.028637 
499 1.55885e+09 0.030470 
500 1.55885e+09 0.024048 
501 1.55885e+09 0.028676 
502 1.55885e+09 0.030458 
503 1.55885e+09 0.025000 
504 1.55885e+09 0.025000 
505 1.55885e+09 0.020590 
506 1.55885e+09 0.030112 
507 1.55885e+09 0.028636 
508 1.55885e+09 0.031111 
509 1.55885e+09 0.024050 
510 1.55885e+09 0.025000 
511 1.55885e+09 0.025000 
512 1.55885e+09 0.026595 
513 1.55885e+09 0.029409 
514 1.55885e+09 0.028638 
515 1.55885e+09 0.030596 
516 1.55885e+09 0.025000 
517 1.55885e+09 0.025000 
518 1.55885e+09 0.030443 
519 1.55885e+09 0.025000 
520 1.55885e+09 0.025000 
521 1.55885e+09 0.028676 
522 1.55885e+09 0.025000 
523 1.55885e+09 0.025000 
524 1.55885e+09 0.026628 
525 1.55885e+09 0.029381 
526 1.55885e+09 0.028347 
527 1.55885e+09 0.030604 
528 1.55885e+09 0.025000 
529 1.55885e+09 0.025000 
530 1.55885e+09 0.020591 
531 1.55885e+09 0.030112 
532 1.55885e+09 0.028637 
533 1.55885e+09 0.031118 
534 1.55885e+09 0.024048 
535 1.55885e+09 0.025000 
536 1.55885e+09 0.025000 
537 1.55885e+09 0.020597 
538 1.55885e+09 0.030176 
539 1.55885e+09 0.028638 
540 1.55885e+09 0.031218 
541 1.55885e+09 0.024050 
542 1.55885e+09 0.025000 
543 1.55885e+09 0.025000 
544 1.55885e+09 0.026606 
545 1.55885e+09 0.029415 
546 1.55885e+09 0.028635 
547 1.55885e+09 0.030602 
548 1.55885e+09 0.025000 
549 1.55885e+09 0.025000 
550 1.55885e+09 0.029698 
551 1.55885e+09 0.025000 
552 1.55885e+09 0.025000 
553 1.55885e+09 0.029436 
554 1.55885e+09 0.025000 
555 1.55885e+09 0.025000 
556 1.55885e+09 0.026627 
557 1.55885e+09 0.029428 
558 1.55885e+09 0.028636 
559 1.55885e+09 0.030606 
560 1.55885e+09 0.025000 
561 1.55885e+09 0.025000 
562 1.55885e+09 0.020593 
563 1.55885e+09 0.030176 
564 1.55885e+09 0.028639 
565 1.55885e+09 0.031221 
566 1.55885e+09 0.024048 
567 1.55885e+09 0.025000 
568 1.55885e+09 0.025000 
569 1.55885e+09 0.030237 
570 1.55885e+09 0.020565 
571 1.55885e+09 0.029373 
572 1.55885e+09 0.027843 
573 1.55885e+09 0.032322 
574 1.55885e+09 0.025000 
575 1.55885e+09 0.025000 
576 1.55885e+09 0.026807 
577 1.55885e+09 0.028638 
578 1.55885e+09 0.030394 
579 1.55885e+09 0.024050 
580 1.55885e+09 0.025000 
581 1.55885e+09 0.025000 
582 1.55885e+09 0.029161 
583 1.55885e+09 0.025000 
584 1.55885e+09 0.025000 
585 1.55885e+09 0.029699 
586 1.55885e+09 0.025000 
587 1.55885e+09 0.025000 
588 1.55885e+09 0.030112 
589 1.55885e+09 0.020590 
590 1.55885e+09 0.028636 
591 1.55885e+09 0.031120 
592 1.55885e+09 0.024050 
593 1.55885e+09 0.025000 
594 1.55885e+09 0.025000 
595 1.55885e+09 0.026627 
596 1.55885e+09 0.029429 
597 1.55885e+09 0.028637 
598 1.55885e+09 0.030607 
599 1.55885e+09 0.025000 
600 1.55885e+09 0.025000 
601 1.55885e+09 0.026606 
602 1.55885e+09 0.029415 
603 1.55885e+09 0.028635 
604 1.55885e+09 0.030602 
605 1.55885e+09 0.025000 
606 1.55885e+09 0.025000 
607 1.55885e+09 0.030176 
608 1.55885e+09 0.020597 
609 1.55885e+09 0.028638 
610 1.55885e+09 0.031218 
611 1.55885e+09 0.024050 
612 1.55885e+09 0.025000 
613 1.55885e+09 0.025000 
614 1.55885e+09 0.029436 
615 1.55885e+09 0.025000 
616 1.55885e+09 0.025000 
617 1.55885e+09 0.029698 
618 1.55885e+09 0.025000 
619 1.55885e+09 0.025000 
620 1.55885e+09 0.030176 
621 1.55885e+09 0.020593 
622 1.55885e+09 0.028639 
623 1.55885e+09 0.031221 
624 1.55885e+09 0.024048 
625 1.55885e+09 0.025000 
626 1.55885e+09 0.025000 
627 1.55885e+09 0.026627 
628 1.55885e+09 0.029428 
629 1.55885e+09 0.028636 
630 1.55885e+09 0.030606 
631 1.55885e+09 0.025000 
632 1.55885e+09 0.025000 
633 1.55885e+09 0.030237 
634 1.55885e+09 0.029373 
635 1.55885e+09 0.020565 
636 1.55885e+09 0.027843 
637 1.55885e+09 0.032322 
638 1.55885e+09 0.025000 
639 1.55885e+09 0.025000 
640 1.55885e+09 0.026807 
641 1.55885e+09 0.028638 
642 1.55885e+09 0.030394 
643 1.55885e+09 0.024050 
644 1.55885e+09 0.025000 
645 1.55885e+09 0.025000 
646 1.55885e+09 0.029161 
647 1.55885e+09 0.025000 
648 1.55885e+09 0.025000 
649 1.55885e+09 0.029699 
650 1.55885e+09 0.025000 
651 1.55885e+09 0.025000 
652 1.55885e+09 0.030112 
653 1.55885e+09 0.020590 
654 1.55885e+09 0.028636 
655 1.55885e+09 0.031120 
656 1.55885e+09 0.024050 
657 1.55885e+09 0.025000 
658 1.55885e+09 0.025000 
659 1.55885e+09 0.026627 
660 1.55885e+09 0.029429 
661 1.55885e+09 0.028637 
662 1.55885e+09 0.030607 
663 1.55885e+09 0.025000 
664 1.55885e+09 0.025000 
665 1.55885e+09 0.026607 
666 1.55885e+09 0.029411 
667 1.55885e+09 0.028638 
668 1.55885e+09 0.030604 
669 1.55885e+09 0.025000 
670 1.55885e+09 0.025000 
671 1.55885e+09 0.030177 
672 1.55885e+09 0.020600 
673 1.55885e+09 0.028639 
674 1.55885e+09 0.031216 
675 1.55885e+09 0.024048 
676 1.55885e+09 0.025000 
677 1.55885e+09 0.025000 
678 1.55885e+09 0.029437 
679 1.55885e+09 0.025000 
680 1.55885e+09 0.025000 
681 1.55885e+09 0.029705 
682 1.55885e+09 0.025000 
683 1.55885e+09 0.025000 
684 1.55885e+09 0.030112 
685 1.55885e+09 0.020591 
686 1.55885e+09 0.028637 
687 1.55885e+09 0.031110 
688 1.55885e+09 0.024048 
689 1.55885e+09 0.025000 
690 1.55885e+09 0.025000 
691 1.55885e+09 0.026586 
692 1.55885e+09 0.029433 
693 1.55885e+09 0.028635 
694 1.55885e+09 0.030553 
695 1.55885e+09 0.025000 
696 1.55885e+09 0.025000 
697 1.55885e+09 0.030112 
698 1.55885e+09 0.028636 
699 1.55885e+09 0.031111 
700 1.55885e+09 0.024050 
701 1.55885e+09 0.020590 
702 1.55885e+09 0.025000 
703 1.55885e+09 0.025000 
704 1.55885e+09 0.026606 
705 1.55885e+09 0.029415 
706 1.55885e+09 0.028636 
707 1.55885e+09 0.030595 
708 1.55885e+09 0.025000 
709 1.55885e+09 0.025000 
710 1.55885e+09 0.029702 
711 1.55885e+09 0.025000 
712 1.55885e+09 0.025000 
713 1.55885e+09 0.029436 
714 1.55885e+09 0.025000 
715 1.55885e+09 0.025000 
716 1.55885e+09 0.026627 
717 1.55885e+09 0.029426 
718 1.55885e+09 0.028639 
719 1.55885e+09 0.030604 
720 1.55885e+09 0.025000 
721 1.55885e+09 0.025000 
722 1.55885e+09 0.026808 
723 1.55885e+09 0.028638 
724 1.55885e+09 0.030393 
725 1.55885e+09 0.024048 
726 1.55885e+09 0.025000 
727 1.55885e+09 0.025000 
728 1.55885e+09 0.030176 
729 1.55885e+09 0.028638 
730 1.55885e+09 0.031218 
731 1.55885e+09 0.024050 
732 1.55885e+09 0.020597 
733 1.55885e+09 0.025000 
734 1.55885e+09 0.025000 
735 1.55885e+09 0.030237 
736 1.55885e+09 0.029374 
737 1.55885e+09 0.027840 
738 1.55885e+09 0.032322 
739 1.55885e+09 0.020566 
740 1.55885e+09 0.025000 
741 1.55885e+09 0.025000 
742 1.55885e+09 0.029698 
743 1.55885e+09 0.025000 
744 1.55885e+09 0.025000 
745 1.55885e+09 0.029162 
746 1.55885e+09 0.025000 
747 1.55885e+09 0.025000 
748 1.55885e+09 0.026627 
749 1.55885e+09 0.029428 
750 1.55885e+09 0.028636 
751 1.55885e+09 0.030606 
752 1.55885e+09 0.025000 
753 1.55885e+09 0.025000 
754 1.55885e+09 0.030176 
755 1.55885e+09 0.028639 
756 1.55885e+09 0.031218 
757 1.55885e+09 0.024050 
758 1.55885e+09 0.020597 
759 1.55885e+09 0.025000 
760 1.55885e+09 0.025000 
761 1.55885e+09 0.030112 
762 1.55885e+09 0.028637 
763 1.55885e+09 0.031110 
764 1.55885e+09 0.024048 
765 1.55885e+09 0.020591 
766 1.55885e+09 0.025000 
767 1.55885e+09 0.025000 
768 1.55885e+09 0.026708 
769 1.55885e+09 0.024890 
770 1.55885e+09 0.026900 
771 1.55885e+09 0.030315 
772 1.55885e+09 0.025000 
773 1.55885e+09 0.025000 
774 1.55885e+09 0.029696 
775 1.55885e+09 0.025000 
776 1.55885e+09 0.025000 
777 1.55885e+09 0.029135 
778 1.55885e+09 0.025000 
779 1.55885e+09 0.025000 
780 1.55885e+09 0.026585 
781 1.55885e+09 0.029430 
782 1.55885e+09 0.028638 
783 1.55885e+09 0.030555 
784 1.55885e+09 0.025000 
785 1.55885e+09 0.025000 
786 1.55885e+09 0.026808 
787 1.55885e+09 0.028638 
788 1.55885e+09 0.030393 
789 1.55885e+09 0.024048 
790 1.55885e+09 0.025000 
791 1.55885e+09 0.025000 
792 1.55885e+09 0.030112 
793 1.55885e+09 0.028643 
794 1.55885e+09 0.031114 
795 1.55885e+09 0.024050 
796 1.55885e+09 0.020590 
797 1.55885e+09 0.025000 
798 1.55885e+09 0.025000 
799 1.55885e+09 0.030247 
800 1.55885e+09 0.028473 
801 1.55885e+09 0.027090 
802 1.55885e+09 0.032245 
803 1.55885e+09 0.020566 
804 1.55885e+09 0.025000 
805 1.55885e+09 0.025000 
806 1.55885e+09 0.030457 
807 1.55885e+09 0.025000 
808 1.55885e+09 0.025000 
809 1.55885e+09 0.029161 
810 1.55885e+09 0.025000 
811 1.55885e+09 0.025000 
812 1.55885e+09 0.026628 
813 1.55885e+09 0.029381 
814 1.55885e+09 0.028346 
815 1.55885e+09 0.030605 
816 1.55885e+09 0.025000 
817 1.55885e+09 0.025000 
818 1.55885e+09 0.030176 
819 1.55885e+09 0.028639 
820 1.55885e+09 0.031218 
821 1.55885e+09 0.024050 
822 1.55885e+09 0.020597 
823 1.55885e+09 0.025000 
824 1.55885e+09 0.025000 
825 1.55885e+09 0.030235 
826 1.55885e+09 0.029352 
827 1.55885e+09 0.027957 
828 1.55885e+09 0.032311 
829 1.55885e+09 0.020566 
830 1.55885e+09 0.025000 
831 1.55885e+09 0.025000 
832 1.55885e+09 0.026807 
833 1.55885e+09 0.028638 
834 1.55885e+09 0.030392 
835 1.55885e+09 0.024050 
836 1.55885e+09 0.025000 
837 1.55885e+09 0.025000 
838 1.55885e+09 0.028677 
839 1.55885e+09 0.025000 
840 1.55885e+09 0.025000 
841 1.55885e+09 0.030442 
842 1.55885e+09 0.025000 
843 1.55885e+09 0.025000 
844 1.55885e+09 0.026807 
845 1.55885e+09 0.028638 
846 1.55885e+09 0.030393 
847 1.55885e+09 0.024051 
848 1.55885e+09 0.025000 
849 1.55885e+09 0.025000 
850 1.55885e+09 0.026628 
851 1.55885e+09 0.029378 
852 1.55885e+09 0.028345 
853 1.55885e+09 0.030607 
854 1.55885e+09 0.025000 
855 1.55885e+09 0.025000 
856 1.55885e+09 0.030236 
857 1.55885e+09 0.029352 
858 1.55885e+09 0.027957 
859 1.55885e+09 0.032311 
860 1.55885e+09 0.020566 
861 1.55885e+09 0.025000 
862 1.55885e+09 0.025000 
863 1.55885e+09 0.030176 
864 1.55885e+09 0.028638 
865 1.55885e+09 0.031219 
866 1.55885e+09 0.024050 
867 1.55885e+09 0.020597 
868 1.55885e+09 0.025000 
869 1.55885e+09 0.025000 
870 1.55885e+09 0.028677 
871 1.55885e+09 0.025000 
872 1.55885e+09 0.025000 
873 1.55885e+09 0.030457 
874 1.55885e+09 0.025000 
875 1.55885e+09 0.025000 
876 1.55885e+09 0.030176 
877 1.55885e+09 0.028639 
878 1.55885e+09 0.031218 
879 1.55885e+09 0.024050 
880 1.55885e+09 0.020597 
881 1.55885e+09 0.025000 
882 1.55885e+09 0.025000 
883 1.55885e+09 0.026738 
884 1.55885e+09 0.024890 
885 1.55885e+09 0.026861 
886 1.55885e+09 0.030365 
887 1.55885e+09 0.025000 
888 1.55885e+09 0.025000 
889 1.55885e+09 0.030235 
890 1.55885e+09 0.029352 
891 1.55885e+09 0.027957 
892 1.55885e+09 0.032311 
893 1.55885e+09 0.020566 
894 1.55885e+09 0.025000 
895 1.55885e+09 0.025000 
896 1.55885e+09 0.026807 
897 1.55885e+09 0.028638 
898 1.55885e+09 0.030394 
899 1.55885e+09 0.024050 
900 1.55885e+09 0.025000 
901 1.55885e+09 0.025000 
902 1.55885e+09 0.028677 
903 1.55885e+09 0.025000 
904 1.55885e+09 0.025000 
905 1.55885e+09 0.030458 
906 1.55885e+09 0.025000 
907 1.55885e+09 0.025000 
908 1.55885e+09 0.026807 
909 1.55885e+09 0.028638 
910 1.55885e+09 0.030393 
911 1.55885e+09 0.024051 
912 1.55885e+09 0.025000 
913 1.55885e+09 0.025000 
914 1.55885e+09 0.026738 
915 1.55885e+09 0.024891 
916 1.55885e+09 0.026861 
917 1.55885e+09 0.030365 
918 1.55885e+09 0.025000 
919 1.55885e+09 0.025000 
920 1.55885e+09 0.030236 
921 1.55885e+09 0.029353 
922 1.55885e+09 0.027954 
923 1.55885e+09 0.032311 
924 1.55885e+09 0.020565 
925 1.55885e+09 0.025000 
926 1.55885e+09 0.025000 
927 1.55885e+09 0.030177 
928 1.55885e+09 0.028639 
929 1.55885e+09 0.031221 
930 1.55885e+09 0.024048 
931 1.55885e+09 0.020600 
932 1.55885e+09 0.025000 
933 1.55885e+09 0.025000 
934 1.55885e+09 0.028678 
935 1.55885e+09 0.025000 
936 1.55885e+09 0.025000 
937 1.55885e+09 0.030458 
938 1.55885e+09 0.025000 
939 1.55885e+09 0.025000 
940 1.55885e+09 0.030112 
941 1.55885e+09 0.028637 
942 1.55885e+09 0.031112 
943 1.55885e+09 0.024050 
944 1.55885e+09 0.020590 
945 1.55885e+09 0.025000 
946 1.55885e+09 0.025000 
947 1.55885e+09 0.026708 
948 1.55885e+09 0.024889 
949 1.55885e+09 0.026864 
950 1.55885e+09 0.030314 
951 1.55885e+09 0.025000 
952 1.55885e+09 0.025000 
953 1.55885e+09 0.030235 
954 1.55885e+09 0.029352 
955 1.55885e+09 0.027957 
956 1.55885e+09 0.032311 
957 1.55885e+09 0.020566 
958 1.55885e+09 0.025000 
959 1.55885e+09 0.025000 
960 1.55885e+09 0.026808 
961 1.55885e+09 0.028638 
962 1.55885e+09 0.030392 
963 1.55885e+09 0.024048 
964 1.55885e+09 0.025000 
965 1.55885e+09 0.025000 
966 1.55885e+09 0.028677 
967 1.55885e+09 0.025000 
968 1.55885e+09 0.025000 
969 1.55885e+09 0.030458 
970 1.55885e+09 0.025000 
971 1.55885e+09 0.025000 
972 1.55885e+09 0.026807 
973 1.55885e+09 0.028638 
974 1.55885e+09 0.030393 
975 1.55885e+09 0.024051 
976 1.55885e+09 0.025000 
977 1.55885e+09 0.025000 
978 1.55885e+09 0.026699 
979 1.55885e+09 0.024890 
980 1.55885e+09 0.026865 
981 1.55885e+09 0.030315 
982 1.55885e+09 0.025000 
983 1.55885e+09 0.025000 
984 1.55885e+09 0.030246 
985 1.55885e+09 0.028468 
986 1.55885e+09 0.027163 
987 1.55885e+09 0.032240 
988 1.55885e+09 0.020566 
989 1.55885e+09 0.025000 
990 1.55885e+09 0.025000 
991 1.55885e+09 0.030112 
992 1.55885e+09 0.028643 
993 1.55885e+09 0.031114 
994 1.55885e+09 0.024050 
995 1.55885e+09 0.020590 
996 1.55885e+09 0.025000 
997 1.55885e+09 0.025000 
998 1.55885e+09 0.028677 
999 1.55885e+09 0.025000 
1000 1.55885e+09 0.025000 
1001 1.55885e+09 0.030457 
1002 1.55885e+09 0.025000 
1003 1.55885e+09 0.025000 
1004 1.55885e+09 0.030176 
1005 1.55885e+09 0.028639 
1006 1.55885e+09 0.031220 
1007 1.55885e+09 0.024050 
1008 1.55885e+09 0.020597 
1009 1.55885e+09 0.025000 
1010 1.55885e+09 0.025000 
1011 1.55885e+09 0.026738 
1012 1.55885e+09 0.024888 
1013 1.55885e+09 0.026861 
1014 1.55885e+09 0.030361 
1015 1.55885e+09 0.025000 
1016 1.55885e+09 0.025000 
1017 1.55885e+09 0.030245 
1018 1.55885e+09 0.028469 
1019 1.55885e+09 0.027165 
1020 1.55885e+09 0.032240 
1021 1.55885e+09 0.020566 
1022 1.55885e+09 0.025000 
1023 1.55885e+09 0.025000 
1024 1.55885e+09 0.026808 
1025 1.55885e+09 0.028638 
1026 1.55885e+09 0.030392 
1027 1.55885e+09 0.024048 
1028 1.55885e+09 0.025000 
1029 1.55885e+09 0.025000 
1030 1.55885e+09 0.028677 
1031 1.55885e+09 0.025000 
1032 1.55885e+09 0.025000 
1033 1.55885e+09 0.030458 
1034 1.55885e+09 0.025000 
1035 1.55885e+09 0.025000 
1036 1.55885e+09 0.026807 
1037 1.55885e+09 0.028638 
1038 1.55885e+09 0.030395 
1039 1.55885e+09 0.024051 
1040 1.55885e+09 0.025000 
1041 1.55885e+09 0.025000 
1042 1.55885e+09 0.026699 
1043 1.55885e+09 0.024890 
1044 1.55885e+09 0.026865 
1045 1.55885e+09 0.030315 
1046 1.55885e+09 0.025000 
1047 1.55885e+09 0.025000 
1048 1.55885e+09 0.030246 
1049 1.55885e+09 0.028467 
1050 1.55885e+09 0.027163 
1051 1.55885e+09 0.032242 
1052 1.55885e+09 0.020565 
1053 1.55885e+09 0.025000 
1054 1.55885e+09 0.025000 
1055 1.55885e+09 0.030112 
1056 1.55885e+09 0.028644 
1057 1.55885e+09 0.031116 
1058 1.55885e+09 0.024048 
1059 1.55885e+09 0.020591 
1060 1.55885e+09 0.025000 
1061 1.55885e+09 0.025000 
1062 1.55885e+09 0.028678 
1063 1.55885e+09 0.025000 
1064 1.55885e+09 0.025000 
1065 1.55885e+09 0.030458 
1066 1.55885e+09 0.025000 
1067 1.55885e+09 0.025000 
1068 1.55885e+09 0.030112 
1069 1.55885e+09 0.028637 
1070 1.55885e+09 0.031114 
1071 1.55885e+09 0.024050 
1072 1.55885e+09 0.020590 
1073 1.55885e+09 0.025000 
1074 1.55885e+09 0.025000 
1075 1.55885e+09 0.026699 
1076 1.55885e+09 0.024887 
1077 1.55885e+09 0.026864 
1078 1.55885e+09 0.030315 
1079 1.55885e+09 0.025000 
1080 1.55885e+09 0.020872 
1081 1.55885e+09 0.024896 
1082 1.55885e+09 0.025000 
1083 1.55885e+09 0.020568 
1084 1.55885e+09 0.026891 
1085 1.55885e+09 0.025000 
1086 1.55885e+09 0.026963 
1087 1.55885e+09 0.020454 
1088 1.55885e+09 0.025000 
1089 1.55885e+09 0.020422 
1090 1.55885e+09 0.026933 
1091 1.55885e+09 0.025000 
1092 1.55885e+09 0.020410 
1093 1.55885e+09 0.026918 
1094 1.55885e+09 0.025000 
1095 1.55885e+09 0.020410 
1096 1.55885e+09 0.026918 
1097 1.55885e+09 0.025000 
1098 1.55885e+09 0.020410 
1099 1.55885e+09 0.026918 
1100 1.55885e+09 0.025000 
1101 1.55885e+09 0.020410 
1102 1.55885e+09 0.026918 
1103 1.55885e+09 0.025000 
1104 1.55885e+09 0.020410 
1105 1.55885e+09 0.026918 
1106 1.55885e+09 0.025000 
1107 1.55885e+09 0.020321 
1108 1.55885e+09 0.026918 
1109 1.55885e+09 0.021176 
1110 1.55885e+09 0.026748 
1111 1.55885e+09 0.025000 
1112 1.55885e+09 0.020785 
1113 1.55885e+09 0.024896 
1114 1.55885e+09 0.025000 
1115 1.55885e+09 0.027605 
1116 1.55885e+09 0.021151 
1117 1.55885e+09 0.025000 
1118 1.55885e+09 0.024629 
1119 1.55885e+09 0.026568 
1120 1.55885e+09 0.025000 
1121 1.55885e+09 0.028803 
1122 1.55885e+09 0.021938 
1123 1.55885e+09 0.025000 
1124 1.55885e+09 0.023261 
1125 1.55885e+09 0.024336 
1126 1.55885e+09 0.025000 
1127 1.55885e+09 0.022540 
1128 1.55885e+09 0.022470 
1129 1.55885e+09 0.025000 
1130 1.55885e+09 0.022921 
1131 1.55885e+09 0.023414 
1132 1.55885e+09 0.025000 
1133 1.55885e+09 0.021301 
1134 1.55885e+09 0.023595 
1135 1.55885e+09 0.025000 
1136 1.55885e+09 0.023072 
1137 1.55885e+09 0.020934 
1138 1.55885e+09 0.025000 
1139 1.55885e+09 0.020095 
1140 1.55885e+09 0.019144 
1141 1.55885e+09 0.019751 
1142 1.55885e+09 0.020964 
1143 1.55885e+09 0.025000 
1144 1.55885e+09 0.029829 
1145 1.55885e+09 0.019882 