LAMMPS DATA FILE 

14926 atoms 
33816 bonds 

4 atom types 
33816 bond types 

-2.625434 2.626414 xlo xhi 
-2.624096 2.629216 ylo yhi 
-0.006590 0.006590 zlo zhi 

Bond Coeffs # harmonic 

1 1.55885e+09 0.024997 
2 1.55885e+09 0.024996 
3 1.55885e+09 0.023151 
4 1.55885e+09 0.029242 
5 1.55885e+09 0.017833 
6 1.55885e+09 0.020621 
7 1.55885e+09 0.025003 
8 1.55885e+09 0.025003 
9 1.55885e+09 0.023257 
10 1.55885e+09 0.029284 
11 1.55885e+09 0.017852 
12 1.55885e+09 0.020358 
13 1.55885e+09 0.025003 
14 1.55885e+09 0.025003 
15 1.55885e+09 0.022023 
16 1.55885e+09 0.027377 
17 1.55885e+09 0.017460 
18 1.55885e+09 0.025003 
19 1.55885e+09 0.024996 
20 1.55885e+09 0.021876 
21 1.55885e+09 0.027278 
22 1.55885e+09 0.017671 
23 1.55885e+09 0.024999 
24 1.55885e+09 0.025001 
25 1.55885e+09 0.022869 
26 1.55885e+09 0.027024 
27 1.55885e+09 0.017854 
28 1.55885e+09 0.020643 
29 1.55885e+09 0.024999 
30 1.55885e+09 0.025000 
31 1.55885e+09 0.023032 
32 1.55885e+09 0.029189 
33 1.55885e+09 0.017814 
34 1.55885e+09 0.020843 
35 1.55885e+09 0.025000 
36 1.55885e+09 0.025004 
37 1.55885e+09 0.023059 
38 1.55885e+09 0.026867 
39 1.55885e+09 0.017405 
40 1.55885e+09 0.020586 
41 1.55885e+09 0.024998 
42 1.55885e+09 0.025000 
43 1.55885e+09 0.023136 
44 1.55885e+09 0.026815 
45 1.55885e+09 0.017425 
46 1.55885e+09 0.020394 
47 1.55885e+09 0.024999 
48 1.55885e+09 0.025001 
49 1.55885e+09 0.022942 
50 1.55885e+09 0.027426 
51 1.55885e+09 0.017765 
52 1.55885e+09 0.020561 
53 1.55885e+09 0.024998 
54 1.55885e+09 0.025000 
55 1.55885e+09 0.021693 
56 1.55885e+09 0.022650 
57 1.55885e+09 0.027166 
58 1.55885e+09 0.018933 
59 1.55885e+09 0.025001 
60 1.55885e+09 0.024998 
61 1.55885e+09 0.023386 
62 1.55885e+09 0.027387 
63 1.55885e+09 0.017372 
64 1.55885e+09 0.019941 
65 1.55885e+09 0.024999 
66 1.55885e+09 0.025001 
67 1.55885e+09 0.023420 
68 1.55885e+09 0.027625 
69 1.55885e+09 0.017293 
70 1.55885e+09 0.019985 
71 1.55885e+09 0.025002 
72 1.55885e+09 0.025002 
73 1.55885e+09 0.022854 
74 1.55885e+09 0.026845 
75 1.55885e+09 0.017887 
76 1.55885e+09 0.020668 
77 1.55885e+09 0.024994 
78 1.55885e+09 0.025002 
79 1.55885e+09 0.023140 
80 1.55885e+09 0.029228 
81 1.55885e+09 0.017842 
82 1.55885e+09 0.020630 
83 1.55885e+09 0.025002 
84 1.55885e+09 0.025002 
85 1.55885e+09 0.021623 
86 1.55885e+09 0.022509 
87 1.55885e+09 0.027082 
88 1.55885e+09 0.019295 
89 1.55885e+09 0.025002 
90 1.55885e+09 0.025002 
91 1.55885e+09 0.023051 
92 1.55885e+09 0.026827 
93 1.55885e+09 0.017393 
94 1.55885e+09 0.020570 
95 1.55885e+09 0.025004 
96 1.55885e+09 0.025000 
97 1.55885e+09 0.023396 
98 1.55885e+09 0.029100 
99 1.55885e+09 0.017344 
100 1.55885e+09 0.020436 
101 1.55885e+09 0.025004 
102 1.55885e+09 0.025000 
103 1.55885e+09 0.021692 
104 1.55885e+09 0.022463 
105 1.55885e+09 0.027148 
106 1.55885e+09 0.019328 
107 1.55885e+09 0.025000 
108 1.55885e+09 0.025003 
109 1.55885e+09 0.023110 
110 1.55885e+09 0.026900 
111 1.55885e+09 0.017391 
112 1.55885e+09 0.020460 
113 1.55885e+09 0.025004 
114 1.55885e+09 0.025000 
115 1.55885e+09 0.021817 
116 1.55885e+09 0.026722 
117 1.55885e+09 0.017866 
118 1.55885e+09 0.025000 
119 1.55885e+09 0.025000 
120 1.55885e+09 0.022980 
121 1.55885e+09 0.027438 
122 1.55885e+09 0.017771 
123 1.55885e+09 0.021034 
124 1.55885e+09 0.025000 
125 1.55885e+09 0.025000 
126 1.55885e+09 0.022973 
127 1.55885e+09 0.027304 
128 1.55885e+09 0.017822 
129 1.55885e+09 0.021006 
130 1.55885e+09 0.025000 
131 1.55885e+09 0.025000 
132 1.55885e+09 0.021959 
133 1.55885e+09 0.027204 
134 1.55885e+09 0.017470 
135 1.55885e+09 0.025000 
136 1.55885e+09 0.025000 
137 1.55885e+09 0.023375 
138 1.55885e+09 0.027473 
139 1.55885e+09 0.017330 
140 1.55885e+09 0.020002 
141 1.55885e+09 0.025000 
142 1.55885e+09 0.025000 
143 1.55885e+09 0.022815 
144 1.55885e+09 0.026892 
145 1.55885e+09 0.017877 
146 1.55885e+09 0.021324 
147 1.55885e+09 0.025000 
148 1.55885e+09 0.024999 
149 1.55885e+09 0.022778 
150 1.55885e+09 0.026986 
151 1.55885e+09 0.017841 
152 1.55885e+09 0.021419 
153 1.55885e+09 0.025000 
154 1.55885e+09 0.025000 
155 1.55885e+09 0.021703 
156 1.55885e+09 0.026656 
157 1.55885e+09 0.017876 
158 1.55885e+09 0.025000 
159 1.55885e+09 0.025000 
160 1.55885e+09 0.021708 
161 1.55885e+09 0.026627 
162 1.55885e+09 0.017875 
163 1.55885e+09 0.024998 
164 1.55885e+09 0.025001 
165 1.55885e+09 0.023028 
166 1.55885e+09 0.027506 
167 1.55885e+09 0.017760 
168 1.55885e+09 0.020948 
169 1.55885e+09 0.024998 
170 1.55885e+09 0.024996 
171 1.55885e+09 0.022940 
172 1.55885e+09 0.027404 
173 1.55885e+09 0.017773 
174 1.55885e+09 0.020572 
175 1.55885e+09 0.025001 
176 1.55885e+09 0.024998 
177 1.55885e+09 0.023219 
178 1.55885e+09 0.029267 
179 1.55885e+09 0.017853 
180 1.55885e+09 0.020478 
181 1.55885e+09 0.025007 
182 1.55885e+09 0.025001 
183 1.55885e+09 0.021984 
184 1.55885e+09 0.027246 
185 1.55885e+09 0.017426 
186 1.55885e+09 0.025002 
187 1.55885e+09 0.024999 
188 1.55885e+09 0.022182 
189 1.55885e+09 0.029196 
190 1.55885e+09 0.017593 
191 1.55885e+09 0.025002 
192 1.55885e+09 0.024999 
193 1.55885e+09 0.023021 
194 1.55885e+09 0.027457 
195 1.55885e+09 0.017782 
196 1.55885e+09 0.020939 
197 1.55885e+09 0.025004 
198 1.55885e+09 0.024994 
199 1.55885e+09 0.023386 
200 1.55885e+09 0.027538 
201 1.55885e+09 0.017313 
202 1.55885e+09 0.019995 
203 1.55885e+09 0.024994 
204 1.55885e+09 0.024999 
205 1.55885e+09 0.021871 
206 1.55885e+09 0.027197 
207 1.55885e+09 0.017724 
208 1.55885e+09 0.025000 
209 1.55885e+09 0.025001 
210 1.55885e+09 0.022767 
211 1.55885e+09 0.026853 
212 1.55885e+09 0.017880 
213 1.55885e+09 0.021420 
214 1.55885e+09 0.025000 
215 1.55885e+09 0.024999 
216 1.55885e+09 0.021693 
217 1.55885e+09 0.022502 
218 1.55885e+09 0.027183 
219 1.55885e+09 0.019250 
220 1.55885e+09 0.025000 
221 1.55885e+09 0.024999 
222 1.55885e+09 0.021760 
223 1.55885e+09 0.026694 
224 1.55885e+09 0.017795 
225 1.55885e+09 0.025001 
226 1.55885e+09 0.025001 
227 1.55885e+09 0.023110 
228 1.55885e+09 0.027009 
229 1.55885e+09 0.017372 
230 1.55885e+09 0.020486 
231 1.55885e+09 0.025000 
232 1.55885e+09 0.025000 
233 1.55885e+09 0.021548 
234 1.55885e+09 0.022759 
235 1.55885e+09 0.027693 
236 1.55885e+09 0.018806 
237 1.55885e+09 0.025000 
238 1.55885e+09 0.025000 
239 1.55885e+09 0.021560 
240 1.55885e+09 0.022745 
241 1.55885e+09 0.027658 
242 1.55885e+09 0.018811 
243 1.55885e+09 0.025000 
244 1.55885e+09 0.025000 
245 1.55885e+09 0.021639 
246 1.55885e+09 0.027161 
247 1.55885e+09 0.017539 
248 1.55885e+09 0.025000 
249 1.55885e+09 0.025000 
250 1.55885e+09 0.021669 
251 1.55885e+09 0.027067 
252 1.55885e+09 0.017531 
253 1.55885e+09 0.025002 
254 1.55885e+09 0.025000 
255 1.55885e+09 0.021621 
256 1.55885e+09 0.022457 
257 1.55885e+09 0.027082 
258 1.55885e+09 0.019290 
259 1.55885e+09 0.024994 
260 1.55885e+09 0.025000 
261 1.55885e+09 0.021722 
262 1.55885e+09 0.022563 
263 1.55885e+09 0.027230 
264 1.55885e+09 0.019050 
265 1.55885e+09 0.025000 
266 1.55885e+09 0.025002 
267 1.55885e+09 0.023028 
268 1.55885e+09 0.029010 
269 1.55885e+09 0.017814 
270 1.55885e+09 0.020830 
271 1.55885e+09 0.024993 
272 1.55885e+09 0.025005 
273 1.55885e+09 0.021375 
274 1.55885e+09 0.026570 
275 1.55885e+09 0.017959 
276 1.55885e+09 0.024996 
277 1.55885e+09 0.024996 
278 1.55885e+09 0.021925 
279 1.55885e+09 0.029082 
280 1.55885e+09 0.017903 
281 1.55885e+09 0.025004 
282 1.55885e+09 0.024996 
283 1.55885e+09 0.022703 
284 1.55885e+09 0.026778 
285 1.55885e+09 0.017890 
286 1.55885e+09 0.021565 
287 1.55885e+09 0.024996 
288 1.55885e+09 0.025003 
289 1.55885e+09 0.021813 
290 1.55885e+09 0.026624 
291 1.55885e+09 0.017889 
292 1.55885e+09 0.025010 
293 1.55885e+09 0.025004 
294 1.55885e+09 0.021103 
295 1.55885e+09 0.029150 
296 1.55885e+09 0.017854 
297 1.55885e+09 0.025002 
298 1.55885e+09 0.025007 
299 1.55885e+09 0.021588 
300 1.55885e+09 0.022732 
301 1.55885e+09 0.027587 
302 1.55885e+09 0.018732 
303 1.55885e+09 0.025002 
304 1.55885e+09 0.024998 
305 1.55885e+09 0.021518 
306 1.55885e+09 0.022814 
307 1.55885e+09 0.027813 
308 1.55885e+09 0.018754 
309 1.55885e+09 0.024998 
310 1.55885e+09 0.025003 
311 1.55885e+09 0.021584 
312 1.55885e+09 0.027164 
313 1.55885e+09 0.017655 
314 1.55885e+09 0.025002 
315 1.55885e+09 0.024998 
316 1.55885e+09 0.023541 
317 1.55885e+09 0.029173 
318 1.55885e+09 0.017378 
319 1.55885e+09 0.020129 
320 1.55885e+09 0.025000 
321 1.55885e+09 0.024996 
322 1.55885e+09 0.021601 
323 1.55885e+09 0.022426 
324 1.55885e+09 0.027087 
325 1.55885e+09 0.019380 
326 1.55885e+09 0.024999 
327 1.55885e+09 0.025004 
328 1.55885e+09 0.021634 
329 1.55885e+09 0.022497 
330 1.55885e+09 0.027063 
331 1.55885e+09 0.019191 
332 1.55885e+09 0.025004 
333 1.55885e+09 0.025000 
334 1.55885e+09 0.023227 
335 1.55885e+09 0.027076 
336 1.55885e+09 0.017388 
337 1.55885e+09 0.020249 
338 1.55885e+09 0.025000 
339 1.55885e+09 0.025004 
340 1.55885e+09 0.023391 
341 1.55885e+09 0.029096 
342 1.55885e+09 0.017342 
343 1.55885e+09 0.020453 
344 1.55885e+09 0.025005 
345 1.55885e+09 0.025005 
346 1.55885e+09 0.021516 
347 1.55885e+09 0.022828 
348 1.55885e+09 0.027827 
349 1.55885e+09 0.018717 
350 1.55885e+09 0.025005 
351 1.55885e+09 0.024998 
352 1.55885e+09 0.021493 
353 1.55885e+09 0.022722 
354 1.55885e+09 0.027739 
355 1.55885e+09 0.018952 
356 1.55885e+09 0.024998 
357 1.55885e+09 0.024991 
358 1.55885e+09 0.021121 
359 1.55885e+09 0.029158 
360 1.55885e+09 0.017862 
361 1.55885e+09 0.024998 
362 1.55885e+09 0.024999 
363 1.55885e+09 0.023611 
364 1.55885e+09 0.029189 
365 1.55885e+09 0.017407 
366 1.55885e+09 0.020011 
367 1.55885e+09 0.028691 
368 1.55885e+09 0.029639 
369 1.55885e+09 0.027335 
370 1.55885e+09 0.029775 
371 1.55885e+09 0.030607 
372 1.55885e+09 0.024918 
373 1.55885e+09 0.029633 
374 1.55885e+09 0.021520 
375 1.55885e+09 0.029989 
376 1.55885e+09 0.025907 
377 1.55885e+09 0.029633 
378 1.55885e+09 0.031455 
379 1.55885e+09 0.019361 
380 1.55885e+09 0.030450 
381 1.55885e+09 0.023361 
382 1.55885e+09 0.025532 
383 1.55885e+09 0.031083 
384 1.55885e+09 0.029442 
385 1.55885e+09 0.026656 
386 1.55885e+09 0.028108 
387 1.55885e+09 0.030305 
388 1.55885e+09 0.023529 
389 1.55885e+09 0.028669 
390 1.55885e+09 0.029630 
391 1.55885e+09 0.026454 
392 1.55885e+09 0.027859 
393 1.55885e+09 0.030250 
394 1.55885e+09 0.023347 
395 1.55885e+09 0.029580 
396 1.55885e+09 0.019776 
397 1.55885e+09 0.030340 
398 1.55885e+09 0.023926 
399 1.55885e+09 0.027767 
400 1.55885e+09 0.031199 
401 1.55885e+09 0.021573 
402 1.55885e+09 0.029998 
403 1.55885e+09 0.025960 
404 1.55885e+09 0.029689 
405 1.55885e+09 0.031459 
406 1.55885e+09 0.028669 
407 1.55885e+09 0.027258 
408 1.55885e+09 0.029600 
409 1.55885e+09 0.030599 
410 1.55885e+09 0.024802 
411 1.55885e+09 0.028679 
412 1.55885e+09 0.029643 
413 1.55885e+09 0.027237 
414 1.55885e+09 0.029568 
415 1.55885e+09 0.030590 
416 1.55885e+09 0.024779 
417 1.55885e+09 0.030438 
418 1.55885e+09 0.021730 
419 1.55885e+09 0.029987 
420 1.55885e+09 0.026108 
421 1.55885e+09 0.029841 
422 1.55885e+09 0.031473 
423 1.55885e+09 0.020059 
424 1.55885e+09 0.030349 
425 1.55885e+09 0.024206 
426 1.55885e+09 0.028075 
427 1.55885e+09 0.031227 
428 1.55885e+09 0.028677 
429 1.55885e+09 0.026193 
430 1.55885e+09 0.027444 
431 1.55885e+09 0.030083 
432 1.55885e+09 0.022932 
433 1.55885e+09 0.028673 
434 1.55885e+09 0.029620 
435 1.55885e+09 0.028662 
436 1.55885e+09 0.029630 
437 1.55885e+09 0.026187 
438 1.55885e+09 0.027445 
439 1.55885e+09 0.030077 
440 1.55885e+09 0.022921 
441 1.55885e+09 0.030444 
442 1.55885e+09 0.020032 
443 1.55885e+09 0.030342 
444 1.55885e+09 0.024179 
445 1.55885e+09 0.026335 
446 1.55885e+09 0.031204 
447 1.55885e+09 0.021733 
448 1.55885e+09 0.029985 
449 1.55885e+09 0.026111 
450 1.55885e+09 0.029859 
451 1.55885e+09 0.031457 
452 1.55885e+09 0.029132 
453 1.55885e+09 0.027224 
454 1.55885e+09 0.029538 
455 1.55885e+09 0.030598 
456 1.55885e+09 0.024766 
457 1.55885e+09 0.028685 
458 1.55885e+09 0.029637 
459 1.55885e+09 0.027261 
460 1.55885e+09 0.029609 
461 1.55885e+09 0.030601 
462 1.55885e+09 0.024807 
463 1.55885e+09 0.029565 
464 1.55885e+09 0.021579 
465 1.55885e+09 0.029990 
466 1.55885e+09 0.025964 
467 1.55885e+09 0.029698 
468 1.55885e+09 0.031462 
469 1.55885e+09 0.019786 
470 1.55885e+09 0.030330 
471 1.55885e+09 0.023944 
472 1.55885e+09 0.027789 
473 1.55885e+09 0.031200 
474 1.55885e+09 0.029437 
475 1.55885e+09 0.026465 
476 1.55885e+09 0.027868 
477 1.55885e+09 0.030255 
478 1.55885e+09 0.023356 
479 1.55885e+09 0.029178 
480 1.55885e+09 0.030435 
481 1.55885e+09 0.026651 
482 1.55885e+09 0.028090 
483 1.55885e+09 0.030301 
484 1.55885e+09 0.023519 
485 1.55885e+09 0.029566 
486 1.55885e+09 0.019360 
487 1.55885e+09 0.030463 
488 1.55885e+09 0.023380 
489 1.55885e+09 0.027315 
490 1.55885e+09 0.031114 
491 1.55885e+09 0.021520 
492 1.55885e+09 0.030001 
493 1.55885e+09 0.025910 
494 1.55885e+09 0.029634 
495 1.55885e+09 0.031458 
496 1.55885e+09 0.029428 
497 1.55885e+09 0.027345 
498 1.55885e+09 0.029779 
499 1.55885e+09 0.030605 
500 1.55885e+09 0.024915 
501 1.55885e+09 0.028679 
502 1.55885e+09 0.030459 
503 1.55885e+09 0.023261 
504 1.55885e+09 0.024908 
505 1.55885e+09 0.020070 
506 1.55885e+09 0.030252 
507 1.55885e+09 0.027565 
508 1.55885e+09 0.030593 
509 1.55885e+09 0.023002 
510 1.55885e+09 0.022543 
511 1.55885e+09 0.025007 
512 1.55885e+09 0.026214 
513 1.55885e+09 0.027943 
514 1.55885e+09 0.027607 
515 1.55885e+09 0.030033 
516 1.55885e+09 0.025002 
517 1.55885e+09 0.025005 
518 1.55885e+09 0.030437 
519 1.55885e+09 0.025005 
520 1.55885e+09 0.025005 
521 1.55885e+09 0.028677 
522 1.55885e+09 0.025196 
523 1.55885e+09 0.027229 
524 1.55885e+09 0.026903 
525 1.55885e+09 0.030626 
526 1.55885e+09 0.029368 
527 1.55885e+09 0.030967 
528 1.55885e+09 0.025377 
529 1.55885e+09 0.027500 
530 1.55885e+09 0.021432 
531 1.55885e+09 0.029916 
532 1.55885e+09 0.030240 
533 1.55885e+09 0.031736 
534 1.55885e+09 0.025473 
535 1.55885e+09 0.026709 
536 1.55885e+09 0.025252 
537 1.55885e+09 0.021204 
538 1.55885e+09 0.030068 
539 1.55885e+09 0.029752 
540 1.55885e+09 0.031645 
541 1.55885e+09 0.025044 
542 1.55885e+09 0.026488 
543 1.55885e+09 0.025048 
544 1.55885e+09 0.026664 
545 1.55885e+09 0.030258 
546 1.55885e+09 0.029259 
547 1.55885e+09 0.030878 
548 1.55885e+09 0.025000 
549 1.55885e+09 0.025001 
550 1.55885e+09 0.029698 
551 1.55885e+09 0.025015 
552 1.55885e+09 0.025014 
553 1.55885e+09 0.029420 
554 1.55885e+09 0.025031 
555 1.55885e+09 0.023606 
556 1.55885e+09 0.026546 
557 1.55885e+09 0.028598 
558 1.55885e+09 0.028089 
559 1.55885e+09 0.030299 
560 1.55885e+09 0.024852 
561 1.55885e+09 0.022558 
562 1.55885e+09 0.019793 
563 1.55885e+09 0.030331 
564 1.55885e+09 0.027055 
565 1.55885e+09 0.030492 
566 1.55885e+09 0.022519 
567 1.55885e+09 0.027349 
568 1.55885e+09 0.025317 
569 1.55885e+09 0.030086 
570 1.55885e+09 0.021429 
571 1.55885e+09 0.030945 
572 1.55885e+09 0.029175 
573 1.55885e+09 0.032779 
574 1.55885e+09 0.026310 
575 1.55885e+09 0.025075 
576 1.55885e+09 0.026867 
577 1.55885e+09 0.029291 
578 1.55885e+09 0.030684 
579 1.55885e+09 0.024695 
580 1.55885e+09 0.025006 
581 1.55885e+09 0.025000 
582 1.55885e+09 0.029160 
583 1.55885e+09 0.025003 
584 1.55885e+09 0.025005 
585 1.55885e+09 0.029693 
586 1.55885e+09 0.024921 
587 1.55885e+09 0.023136 
588 1.55885e+09 0.030260 
589 1.55885e+09 0.020025 
590 1.55885e+09 0.027484 
591 1.55885e+09 0.030564 
592 1.55885e+09 0.022918 
593 1.55885e+09 0.024973 
594 1.55885e+09 0.023015 
595 1.55885e+09 0.026342 
596 1.55885e+09 0.028251 
597 1.55885e+09 0.027809 
598 1.55885e+09 0.030148 
599 1.55885e+09 0.022892 
600 1.55885e+09 0.025007 
601 1.55885e+09 0.026313 
602 1.55885e+09 0.028171 
603 1.55885e+09 0.027751 
604 1.55885e+09 0.030123 
605 1.55885e+09 0.023317 
606 1.55885e+09 0.024889 
607 1.55885e+09 0.030306 
608 1.55885e+09 0.020064 
609 1.55885e+09 0.027576 
610 1.55885e+09 0.030726 
611 1.55885e+09 0.023014 
612 1.55885e+09 0.025002 
613 1.55885e+09 0.025001 
614 1.55885e+09 0.029436 
615 1.55885e+09 0.025004 
616 1.55885e+09 0.025004 
617 1.55885e+09 0.029692 
618 1.55885e+09 0.025377 
619 1.55885e+09 0.027366 
620 1.55885e+09 0.030031 
621 1.55885e+09 0.021460 
622 1.55885e+09 0.030199 
623 1.55885e+09 0.031774 
624 1.55885e+09 0.025407 
625 1.55885e+09 0.025038 
626 1.55885e+09 0.026278 
627 1.55885e+09 0.026685 
628 1.55885e+09 0.030162 
629 1.55885e+09 0.029160 
630 1.55885e+09 0.030854 
631 1.55885e+09 0.022401 
632 1.55885e+09 0.024876 
633 1.55885e+09 0.030390 
634 1.55885e+09 0.027519 
635 1.55885e+09 0.019685 
636 1.55885e+09 0.026442 
637 1.55885e+09 0.031677 
638 1.55885e+09 0.023739 
639 1.55885e+09 0.025008 
640 1.55885e+09 0.026753 
641 1.55885e+09 0.028024 
642 1.55885e+09 0.030077 
643 1.55885e+09 0.023396 
644 1.55885e+09 0.025010 
645 1.55885e+09 0.025014 
646 1.55885e+09 0.029151 
647 1.55885e+09 0.025000 
648 1.55885e+09 0.025001 
649 1.55885e+09 0.029699 
650 1.55885e+09 0.025083 
651 1.55885e+09 0.026261 
652 1.55885e+09 0.029941 
653 1.55885e+09 0.020934 
654 1.55885e+09 0.029363 
655 1.55885e+09 0.031465 
656 1.55885e+09 0.024766 
657 1.55885e+09 0.025185 
658 1.55885e+09 0.027010 
659 1.55885e+09 0.026873 
660 1.55885e+09 0.030544 
661 1.55885e+09 0.029549 
662 1.55885e+09 0.030948 
663 1.55885e+09 0.027944 
664 1.55885e+09 0.025272 
665 1.55885e+09 0.026879 
666 1.55885e+09 0.031023 
667 1.55885e+09 0.029994 
668 1.55885e+09 0.031061 
669 1.55885e+09 0.026919 
670 1.55885e+09 0.025298 
671 1.55885e+09 0.030074 
672 1.55885e+09 0.021302 
673 1.55885e+09 0.029913 
674 1.55885e+09 0.031678 
675 1.55885e+09 0.025157 
676 1.55885e+09 0.025002 
677 1.55885e+09 0.025005 
678 1.55885e+09 0.029421 
679 1.55885e+09 0.025002 
680 1.55885e+09 0.024996 
681 1.55885e+09 0.029698 
682 1.55885e+09 0.024896 
683 1.55885e+09 0.022857 
684 1.55885e+09 0.030275 
685 1.55885e+09 0.019931 
686 1.55885e+09 0.027276 
687 1.55885e+09 0.030474 
688 1.55885e+09 0.022733 
689 1.55885e+09 0.024992 
690 1.55885e+09 0.023052 
691 1.55885e+09 0.026327 
692 1.55885e+09 0.028290 
693 1.55885e+09 0.027828 
694 1.55885e+09 0.030098 
695 1.55885e+09 0.026751 
696 1.55885e+09 0.025238 
697 1.55885e+09 0.029984 
698 1.55885e+09 0.029761 
699 1.55885e+09 0.031564 
700 1.55885e+09 0.025062 
701 1.55885e+09 0.021186 
702 1.55885e+09 0.027041 
703 1.55885e+09 0.025162 
704 1.55885e+09 0.026814 
705 1.55885e+09 0.030545 
706 1.55885e+09 0.029565 
707 1.55885e+09 0.030935 
708 1.55885e+09 0.025001 
709 1.55885e+09 0.025006 
710 1.55885e+09 0.029694 
711 1.55885e+09 0.025013 
712 1.55885e+09 0.025006 
713 1.55885e+09 0.029428 
714 1.55885e+09 0.024979 
715 1.55885e+09 0.022844 
716 1.55885e+09 0.026281 
717 1.55885e+09 0.028152 
718 1.55885e+09 0.027721 
719 1.55885e+09 0.030125 
720 1.55885e+09 0.024949 
721 1.55885e+09 0.022881 
722 1.55885e+09 0.026482 
723 1.55885e+09 0.027524 
724 1.55885e+09 0.029841 
725 1.55885e+09 0.022937 
726 1.55885e+09 0.023253 
727 1.55885e+09 0.024889 
728 1.55885e+09 0.030295 
729 1.55885e+09 0.027515 
730 1.55885e+09 0.030713 
731 1.55885e+09 0.022970 
732 1.55885e+09 0.020028 
733 1.55885e+09 0.023248 
734 1.55885e+09 0.024923 
735 1.55885e+09 0.030365 
736 1.55885e+09 0.028142 
737 1.55885e+09 0.026911 
738 1.55885e+09 0.031902 
739 1.55885e+09 0.019993 
740 1.55885e+09 0.025003 
741 1.55885e+09 0.025004 
742 1.55885e+09 0.029694 
743 1.55885e+09 0.025003 
744 1.55885e+09 0.025001 
745 1.55885e+09 0.029158 
746 1.55885e+09 0.025136 
747 1.55885e+09 0.026876 
748 1.55885e+09 0.026811 
749 1.55885e+09 0.030478 
750 1.55885e+09 0.029467 
751 1.55885e+09 0.030931 
752 1.55885e+09 0.025200 
753 1.55885e+09 0.026610 
754 1.55885e+09 0.030048 
755 1.55885e+09 0.029663 
756 1.55885e+09 0.031625 
757 1.55885e+09 0.024984 
758 1.55885e+09 0.021139 
759 1.55885e+09 0.022875 
760 1.55885e+09 0.024898 
761 1.55885e+09 0.030268 
762 1.55885e+09 0.027290 
763 1.55885e+09 0.030472 
764 1.55885e+09 0.022743 
765 1.55885e+09 0.019937 
766 1.55885e+09 0.023008 
767 1.55885e+09 0.024982 
768 1.55885e+09 0.026463 
769 1.55885e+09 0.023686 
770 1.55885e+09 0.025995 
771 1.55885e+09 0.029893 
772 1.55885e+09 0.025011 
773 1.55885e+09 0.025003 
774 1.55885e+09 0.029702 
775 1.55885e+09 0.025003 
776 1.55885e+09 0.025003 
777 1.55885e+09 0.029134 
778 1.55885e+09 0.025295 
779 1.55885e+09 0.027970 
780 1.55885e+09 0.026885 
781 1.55885e+09 0.031037 
782 1.55885e+09 0.029978 
783 1.55885e+09 0.031032 
784 1.55885e+09 0.025240 
785 1.55885e+09 0.027152 
786 1.55885e+09 0.027070 
787 1.55885e+09 0.029799 
788 1.55885e+09 0.030799 
789 1.55885e+09 0.025069 
790 1.55885e+09 0.026296 
791 1.55885e+09 0.025100 
792 1.55885e+09 0.029956 
793 1.55885e+09 0.029394 
794 1.55885e+09 0.031485 
795 1.55885e+09 0.024794 
796 1.55885e+09 0.020956 
797 1.55885e+09 0.026814 
798 1.55885e+09 0.025230 
799 1.55885e+09 0.030134 
800 1.55885e+09 0.029703 
801 1.55885e+09 0.028127 
802 1.55885e+09 0.032621 
803 1.55885e+09 0.021229 
804 1.55885e+09 0.025011 
805 1.55885e+09 0.025009 
806 1.55885e+09 0.030443 
807 1.55885e+09 0.025000 
808 1.55885e+09 0.025001 
809 1.55885e+09 0.029160 
810 1.55885e+09 0.025003 
811 1.55885e+09 0.022099 
812 1.55885e+09 0.026095 
813 1.55885e+09 0.027623 
814 1.55885e+09 0.027130 
815 1.55885e+09 0.029902 
816 1.55885e+09 0.024984 
817 1.55885e+09 0.023789 
818 1.55885e+09 0.030341 
819 1.55885e+09 0.027935 
820 1.55885e+09 0.030874 
821 1.55885e+09 0.023325 
822 1.55885e+09 0.020275 
823 1.55885e+09 0.023244 
824 1.55885e+09 0.024939 
825 1.55885e+09 0.030382 
826 1.55885e+09 0.028114 
827 1.55885e+09 0.027044 
828 1.55885e+09 0.031888 
829 1.55885e+09 0.020006 
830 1.55885e+09 0.023108 
831 1.55885e+09 0.024957 
832 1.55885e+09 0.026565 
833 1.55885e+09 0.027663 
834 1.55885e+09 0.029904 
835 1.55885e+09 0.023066 
836 1.55885e+09 0.025001 
837 1.55885e+09 0.025001 
838 1.55885e+09 0.028675 
839 1.55885e+09 0.025004 
840 1.55885e+09 0.025004 
841 1.55885e+09 0.030436 
842 1.55885e+09 0.025174 
843 1.55885e+09 0.026860 
844 1.55885e+09 0.026984 
845 1.55885e+09 0.029620 
846 1.55885e+09 0.030763 
847 1.55885e+09 0.024944 
848 1.55885e+09 0.025135 
849 1.55885e+09 0.026859 
850 1.55885e+09 0.026822 
851 1.55885e+09 0.030425 
852 1.55885e+09 0.029172 
853 1.55885e+09 0.030930 
854 1.55885e+09 0.026642 
855 1.55885e+09 0.025164 
856 1.55885e+09 0.030098 
857 1.55885e+09 0.030466 
858 1.55885e+09 0.028848 
859 1.55885e+09 0.032656 
860 1.55885e+09 0.021127 
861 1.55885e+09 0.026704 
862 1.55885e+09 0.025233 
863 1.55885e+09 0.030057 
864 1.55885e+09 0.029742 
865 1.55885e+09 0.031644 
866 1.55885e+09 0.025038 
867 1.55885e+09 0.021189 
868 1.55885e+09 0.025005 
869 1.55885e+09 0.025005 
870 1.55885e+09 0.028668 
871 1.55885e+09 0.025001 
872 1.55885e+09 0.025002 
873 1.55885e+09 0.030455 
874 1.55885e+09 0.024904 
875 1.55885e+09 0.023231 
876 1.55885e+09 0.030316 
877 1.55885e+09 0.027513 
878 1.55885e+09 0.030711 
879 1.55885e+09 0.022959 
880 1.55885e+09 0.020033 
881 1.55885e+09 0.024994 
882 1.55885e+09 0.023118 
883 1.55885e+09 0.026529 
884 1.55885e+09 0.023744 
885 1.55885e+09 0.026005 
886 1.55885e+09 0.029992 
887 1.55885e+09 0.026736 
888 1.55885e+09 0.025195 
889 1.55885e+09 0.030106 
890 1.55885e+09 0.030528 
891 1.55885e+09 0.028914 
892 1.55885e+09 0.032671 
893 1.55885e+09 0.021176 
894 1.55885e+09 0.026793 
895 1.55885e+09 0.025174 
896 1.55885e+09 0.026991 
897 1.55885e+09 0.029590 
898 1.55885e+09 0.030756 
899 1.55885e+09 0.024912 
900 1.55885e+09 0.025005 
901 1.55885e+09 0.025004 
902 1.55885e+09 0.028669 
903 1.55885e+09 0.025001 
904 1.55885e+09 0.025001 
905 1.55885e+09 0.030455 
906 1.55885e+09 0.024954 
907 1.55885e+09 0.023128 
908 1.55885e+09 0.026549 
909 1.55885e+09 0.027661 
910 1.55885e+09 0.029916 
911 1.55885e+09 0.023077 
912 1.55885e+09 0.024978 
913 1.55885e+09 0.023113 
914 1.55885e+09 0.026502 
915 1.55885e+09 0.023745 
916 1.55885e+09 0.025994 
917 1.55885e+09 0.029986 
918 1.55885e+09 0.023039 
919 1.55885e+09 0.024916 
920 1.55885e+09 0.030359 
921 1.55885e+09 0.027954 
922 1.55885e+09 0.026900 
923 1.55885e+09 0.031833 
924 1.55885e+09 0.019907 
925 1.55885e+09 0.023082 
926 1.55885e+09 0.024882 
927 1.55885e+09 0.030296 
928 1.55885e+09 0.027381 
929 1.55885e+09 0.030666 
930 1.55885e+09 0.022852 
931 1.55885e+09 0.019959 
932 1.55885e+09 0.025000 
933 1.55885e+09 0.025004 
934 1.55885e+09 0.028670 
935 1.55885e+09 0.025008 
936 1.55885e+09 0.025009 
937 1.55885e+09 0.030446 
938 1.55885e+09 0.025211 
939 1.55885e+09 0.026716 
940 1.55885e+09 0.029978 
941 1.55885e+09 0.029731 
942 1.55885e+09 0.031557 
943 1.55885e+09 0.025039 
944 1.55885e+09 0.021166 
945 1.55885e+09 0.025168 
946 1.55885e+09 0.026979 
947 1.55885e+09 0.026890 
948 1.55885e+09 0.025998 
949 1.55885e+09 0.027813 
950 1.55885e+09 0.030626 
951 1.55885e+09 0.026202 
952 1.55885e+09 0.025075 
953 1.55885e+09 0.030095 
954 1.55885e+09 0.030163 
955 1.55885e+09 0.028559 
956 1.55885e+09 0.032589 
957 1.55885e+09 0.020927 
958 1.55885e+09 0.027725 
959 1.55885e+09 0.025333 
960 1.55885e+09 0.027125 
961 1.55885e+09 0.030106 
962 1.55885e+09 0.030889 
963 1.55885e+09 0.025315 
964 1.55885e+09 0.025005 
965 1.55885e+09 0.025006 
966 1.55885e+09 0.028668 
967 1.55885e+09 0.025001 
968 1.55885e+09 0.024999 
969 1.55885e+09 0.030457 
970 1.55885e+09 0.024947 
971 1.55885e+09 0.023162 
972 1.55885e+09 0.026570 
973 1.55885e+09 0.027692 
974 1.55885e+09 0.029916 
975 1.55885e+09 0.023095 
976 1.55885e+09 0.024993 
977 1.55885e+09 0.022886 
978 1.55885e+09 0.026445 
979 1.55885e+09 0.023613 
980 1.55885e+09 0.025894 
981 1.55885e+09 0.029871 
982 1.55885e+09 0.023176 
983 1.55885e+09 0.024926 
984 1.55885e+09 0.030385 
985 1.55885e+09 0.027171 
986 1.55885e+09 0.026197 
987 1.55885e+09 0.031787 
988 1.55885e+09 0.019974 
989 1.55885e+09 0.023115 
990 1.55885e+09 0.024914 
991 1.55885e+09 0.030268 
992 1.55885e+09 0.027457 
993 1.55885e+09 0.030560 
994 1.55885e+09 0.022900 
995 1.55885e+09 0.020035 
996 1.55885e+09 0.025002 
997 1.55885e+09 0.025002 
998 1.55885e+09 0.028674 
999 1.55885e+09 0.025007 
1000 1.55885e+09 0.025010 
1001 1.55885e+09 0.030450 
1002 1.55885e+09 0.025086 
1003 1.55885e+09 0.026196 
1004 1.55885e+09 0.030031 
1005 1.55885e+09 0.029349 
1006 1.55885e+09 0.031540 
1007 1.55885e+09 0.024744 
1008 1.55885e+09 0.020945 
1009 1.55885e+09 0.025274 
1010 1.55885e+09 0.027692 
1011 1.55885e+09 0.027016 
1012 1.55885e+09 0.026384 
1013 1.55885e+09 0.028186 
1014 1.55885e+09 0.030744 
1015 1.55885e+09 0.023712 
1016 1.55885e+09 0.024996 
1017 1.55885e+09 0.030412 
1018 1.55885e+09 0.027574 
1019 1.55885e+09 0.026540 
1020 1.55885e+09 0.031922 
1021 1.55885e+09 0.020213 
1022 1.55885e+09 0.022253 
1023 1.55885e+09 0.024938 
1024 1.55885e+09 0.026324 
1025 1.55885e+09 0.027203 
1026 1.55885e+09 0.029649 
1027 1.55885e+09 0.022601 
1028 1.55885e+09 0.024999 
1029 1.55885e+09 0.024999 
1030 1.55885e+09 0.028679 
1031 1.55885e+09 0.025015 
1032 1.55885e+09 0.025014 
1033 1.55885e+09 0.030442 
1034 1.55885e+09 0.025200 
1035 1.55885e+09 0.026894 
1036 1.55885e+09 0.027023 
1037 1.55885e+09 0.029652 
1038 1.55885e+09 0.030767 
1039 1.55885e+09 0.024956 
1040 1.55885e+09 0.025071 
1041 1.55885e+09 0.026511 
1042 1.55885e+09 0.026770 
1043 1.55885e+09 0.025754 
1044 1.55885e+09 0.027536 
1045 1.55885e+09 0.030596 
1046 1.55885e+09 0.026953 
1047 1.55885e+09 0.025240 
1048 1.55885e+09 0.030119 
1049 1.55885e+09 0.029800 
1050 1.55885e+09 0.028287 
1051 1.55885e+09 0.032635 
1052 1.55885e+09 0.021281 
1053 1.55885e+09 0.027514 
1054 1.55885e+09 0.025366 
1055 1.55885e+09 0.029921 
1056 1.55885e+09 0.030237 
1057 1.55885e+09 0.031740 
1058 1.55885e+09 0.025471 
1059 1.55885e+09 0.021445 
1060 1.55885e+09 0.025009 
1061 1.55885e+09 0.025000 
1062 1.55885e+09 0.028668 
1063 1.55885e+09 0.024999 
1064 1.55885e+09 0.024999 
1065 1.55885e+09 0.030453 
1066 1.55885e+09 0.024919 
1067 1.55885e+09 0.023269 
1068 1.55885e+09 0.030267 
1069 1.55885e+09 0.027558 
1070 1.55885e+09 0.030607 
1071 1.55885e+09 0.023000 
1072 1.55885e+09 0.020081 
1073 1.55885e+09 0.024983 
1074 1.55885e+09 0.022568 
1075 1.55885e+09 0.026359 
1076 1.55885e+09 0.023414 
1077 1.55885e+09 0.025738 
1078 1.55885e+09 0.029796 
1079 1.55885e+09 0.024996 
1080 1.55885e+09 0.020864 
1081 1.55885e+09 0.024890 
1082 1.55885e+09 0.025003 
1083 1.55885e+09 0.020558 
1084 1.55885e+09 0.026890 
1085 1.55885e+09 0.024997 
1086 1.55885e+09 0.026965 
1087 1.55885e+09 0.020448 
1088 1.55885e+09 0.025003 
1089 1.55885e+09 0.020412 
1090 1.55885e+09 0.026929 
1091 1.55885e+09 0.025003 
1092 1.55885e+09 0.020403 
1093 1.55885e+09 0.026921 
1094 1.55885e+09 0.025003 
1095 1.55885e+09 0.020400 
1096 1.55885e+09 0.026921 
1097 1.55885e+09 0.024989 
1098 1.55885e+09 0.020400 
1099 1.55885e+09 0.026932 
1100 1.55885e+09 0.025003 
1101 1.55885e+09 0.020400 
1102 1.55885e+09 0.026921 
1103 1.55885e+09 0.025003 
1104 1.55885e+09 0.020400 
1105 1.55885e+09 0.026932 
1106 1.55885e+09 0.024997 
1107 1.55885e+09 0.020315 
1108 1.55885e+09 0.026932 
1109 1.55885e+09 0.021174 
1110 1.55885e+09 0.026773 
1111 1.55885e+09 0.025003 
1112 1.55885e+09 0.020372 
1113 1.55885e+09 0.024992 
1114 1.55885e+09 0.024996 
1115 1.55885e+09 0.027657 
1116 1.55885e+09 0.020582 
1117 1.55885e+09 0.024997 
1118 1.55885e+09 0.023734 
1119 1.55885e+09 0.026443 
1120 1.55885e+09 0.025003 
1121 1.55885e+09 0.028199 
1122 1.55885e+09 0.021521 
1123 1.55885e+09 0.025003 
1124 1.55885e+09 0.023311 
1125 1.55885e+09 0.023724 
1126 1.55885e+09 0.024997 
1127 1.55885e+09 0.022054 
1128 1.55885e+09 0.022833 
1129 1.55885e+09 0.025003 
1130 1.55885e+09 0.022705 
1131 1.55885e+09 0.024005 
1132 1.55885e+09 0.024996 
1133 1.55885e+09 0.021575 
1134 1.55885e+09 0.024104 
1135 1.55885e+09 0.024997 
1136 1.55885e+09 0.023332 
1137 1.55885e+09 0.021506 
1138 1.55885e+09 0.025003 
1139 1.55885e+09 0.020669 
1140 1.55885e+09 0.019323 
1141 1.55885e+09 0.019868 
1142 1.55885e+09 0.021431 
1143 1.55885e+09 0.024996 
1144 1.55885e+09 0.029968 
1145 1.55885e+09 0.019489 