2787
 Atoms. Timestep: 2400000
4 -0.690701 0.800571 0
4 0.696446 0.8001 2.19411e-17
4 0.811189 0.800384 -9.68618e-19
4 -0.805445 0.800825 0
4 -0.748626 0.550699 0
4 0.756913 -0.449754 -6.99218e-18
4 -0.00139402 -0.700958 0
4 0.00192489 0.799039 0
4 -1.50139 -0.697639 0
4 -1.49807 0.802357 0
4 0.00381974 0.798385 1.60231e-16
4 0.00753409 -0.701611 1.39257e-16
4 1.50382 0.802099 -1.39258e-16
4 1.50753 -0.697896 -1.60232e-16
1 -0.691007 0.821101 0
1 -0.69125 0.841566 0
1 -0.691728 0.862085 0
1 -0.692501 0.882585 0
1 -0.693224 0.903119 0
1 -0.694252 0.923503 0
1 -0.695445 0.943924 0
1 -0.696854 0.964323 0
1 -0.698276 0.984668 0
1 -0.699878 1.00496 0
1 -0.701611 1.02524 0
1 -0.703455 1.04547 0
1 -0.705457 1.0657 0
1 -0.70744 1.08592 0
1 -0.709621 1.10603 0
1 -0.711853 1.12612 0
1 -0.714099 1.14621 0
1 -0.71648 1.1662 0
1 -0.718999 1.18623 0
1 -0.721523 1.20624 0
1 -0.724092 1.22622 0
1 -0.726792 1.24622 0
1 -0.729467 1.26619 0
1 -0.732192 1.28612 0
1 -0.734971 1.30605 0
1 -0.737794 1.32594 0
1 -0.74066 1.34582 0
1 -0.743525 1.36569 0
1 -0.746415 1.38553 0
1 -0.749327 1.40534 0
1 -0.752246 1.42515 0
1 -0.755167 1.44493 0
1 -0.758093 1.4647 0
1 -0.761003 1.48446 0
1 -0.763903 1.5042 0
1 -0.766791 1.52393 0
1 -0.769633 1.54365 0
1 -0.772457 1.56335 0
1 -0.775265 1.58306 0
1 -0.777996 1.60274 0
1 -0.780657 1.62239 0
1 -0.783321 1.642 0
1 -0.785907 1.66165 0
1 -0.788401 1.68126 0
1 -0.790814 1.70089 0
1 -0.793116 1.72051 0
1 -0.795418 1.74006 0
1 -0.797619 1.75966 0
1 -0.799679 1.77932 0
1 -0.801641 1.79895 0
1 -0.803521 1.81858 0
1 -0.805329 1.83824 0
1 -0.806938 1.85781 0
1 -0.808373 1.87732 0
1 -0.809844 1.89678 0
1 -0.811163 1.9163 0
1 -0.812247 1.93592 0
1 -0.813211 1.9555 0
1 -0.814073 1.97505 0
1 -0.814797 1.99464 0
1 -0.815228 2.01411 0
1 -0.815392 2.0335 0
1 -0.815627 2.05284 0
1 -0.815657 2.07228 0
1 -0.815386 2.09183 0
1 -0.814988 2.11129 0
1 -0.814276 2.13065 0
1 -0.813667 2.14995 0
1 -0.812523 2.16932 0
1 -0.811326 2.18865 0
1 -0.810062 2.20799 0
1 -0.808396 2.22749 0
1 -0.806361 2.24672 0
1 -0.804194 2.26582 0
1 -0.802036 2.28492 0
1 -0.79955 2.30395 0
1 -0.796766 2.32306 0
1 -0.793556 2.34194 0
1 -0.789988 2.36064 0
1 -0.786562 2.3793 0
1 -0.782813 2.39805 0
1 -0.778548 2.41689 0
1 -0.774062 2.43556 0
1 -0.76933 2.45421 0
1 -0.764386 2.47285 0
1 -0.759017 2.49113 0
1 -0.753278 2.50912 0
1 -0.747706 2.52706 0
1 -0.741754 2.54509 0
1 -0.735198 2.56313 0
1 -0.728447 2.58093 0
1 -0.721201 2.59843 0
1 -0.713992 2.61589 0
1 -0.706464 2.6332 0
1 -0.69869 2.65045 0
1 -0.6902 2.66764 0
1 -0.681588 2.68459 0
1 -0.672618 2.70132 0
1 -0.663647 2.71815 0
1 -0.653946 2.73434 0
1 -0.644163 2.75046 0
1 -0.63433 2.76657 0
1 -0.623684 2.78194 0
1 -0.613413 2.79753 0
1 -0.602133 2.81263 0
1 -0.590855 2.82768 0
1 -0.579471 2.8427 0
1 -0.567283 2.85755 0
1 -0.554786 2.87164 0
1 -0.542256 2.88561 0
1 -0.529696 2.89955 0
1 -0.516407 2.91249 0
1 -0.503372 2.92565 0
1 -0.489859 2.93841 0
1 -0.475742 2.95097 0
1 -0.461554 2.96303 0
1 -0.447258 2.97483 0
1 -0.432403 2.98635 0
1 -0.417445 2.99722 0
1 -0.402124 3.00754 0
1 -0.386853 3.01804 0
1 -0.371148 3.02813 0
1 -0.355194 3.03765 0
1 -0.338875 3.04677 0
1 -0.322385 3.05542 0
1 -0.305894 3.06406 0
1 -0.289109 3.07142 0
1 -0.27251 3.07922 0
1 -0.255139 3.08593 0
1 -0.237786 3.09266 0
1 -0.220213 3.09894 0
1 -0.202596 3.10471 0
1 -0.184739 3.10988 0
1 -0.166838 3.11437 0
1 -0.149009 3.11905 0
1 -0.131043 3.12316 0
1 -0.112703 3.12673 0
1 -0.0945091 3.12933 0
1 -0.0765048 3.13138 0
1 -0.0585619 3.13373 0
1 -0.0401904 3.13478 0
1 -0.0218071 3.13616 0
1 -0.00323494 3.13667 0
1 0.0152507 3.13661 0
1 0.0338347 3.1359 0
1 0.0524231 3.13501 0
1 0.0711616 3.13383 0
1 0.0894588 3.13163 0
1 0.107579 3.12914 0
1 0.125612 3.12611 0
1 0.143707 3.12317 0
1 0.161704 3.11942 0
1 0.179907 3.11506 0
1 0.197664 3.11017 0
1 0.215196 3.10465 0
1 0.232846 3.09929 0
1 0.250375 3.09305 0
1 0.268036 3.08645 0
1 0.285104 3.07925 0
1 0.301737 3.07155 0
1 0.318427 3.06408 0
1 0.335085 3.05576 0
1 0.351389 3.04694 0
1 0.367403 3.03756 0
1 0.383693 3.02824 0
1 0.39915 3.01804 0
1 0.41438 3.00769 0
1 0.429687 2.99739 0
1 0.4446 2.98646 0
1 0.459474 2.9749 0
1 0.473828 2.9631 0
1 0.488025 2.95103 0
1 0.502149 2.93854 0
1 0.515541 2.92566 0
1 0.528374 2.91243 0
1 0.541411 2.89931 0
1 0.554195 2.88551 0
1 0.566527 2.87147 0
1 0.578311 2.85703 0
1 0.590294 2.84285 0
1 0.601784 2.82776 0
1 0.613014 2.81259 0
1 0.623889 2.79713 0
1 0.634882 2.78165 0
1 0.644896 2.76576 0
1 0.654719 2.74984 0
1 0.66461 2.73394 0
1 0.674009 2.71769 0
1 0.683137 2.701 0
1 0.691772 2.68428 0
1 0.700254 2.66739 0
1 0.708511 2.65016 0
1 0.716271 2.63298 0
1 0.723825 2.61567 0
1 0.731103 2.59796 0
1 0.737999 2.58029 0
1 0.744704 2.56257 0
1 0.751103 2.5445 0
1 0.757105 2.5265 0
1 0.762613 2.50839 0
1 0.768231 2.49027 0
1 0.773475 2.47196 0
1 0.778369 2.45333 0
1 0.782959 2.43478 0
1 0.787379 2.4162 0
1 0.791503 2.39737 0
1 0.795279 2.37863 0
1 0.798633 2.35986 0
1 0.802079 2.34108 0
1 0.805131 2.32215 0
1 0.807905 2.30301 0
1 0.810369 2.28397 0
1 0.812455 2.26489 0
1 0.814582 2.24575 0
1 0.816372 2.22648 0
1 0.817955 2.20721 0
1 0.819313 2.18787 0
1 0.820285 2.16856 0
1 0.821366 2.14925 0
1 0.821916 2.13002 0
1 0.822541 2.11075 0
1 0.822962 2.09133 0
1 0.823065 2.07176 0
1 0.823071 2.05227 0
1 0.822765 2.03284 0
1 0.82249 2.01341 0
1 0.821981 1.99393 0
1 0.821251 1.97433 0
1 0.820376 1.95481 0
1 0.819413 1.93528 0
1 0.818266 1.91568 0
1 0.816969 1.89615 0
1 0.815462 1.87667 0
1 0.813986 1.85715 0
1 0.812325 1.83759 0
1 0.810514 1.81797 0
1 0.808588 1.7984 0
1 0.806576 1.77882 0
1 0.804458 1.75918 0
1 0.802243 1.73959 0
1 0.799889 1.72003 0
1 0.797552 1.70044 0
1 0.795094 1.68083 0
1 0.792541 1.66117 0
1 0.789922 1.64154 0
1 0.787211 1.62192 0
1 0.784512 1.60228 0
1 0.781741 1.58261 0
1 0.778901 1.56291 0
1 0.776029 1.54322 0
1 0.773109 1.52353 0
1 0.770187 1.50381 0
1 0.76724 1.48407 0
1 0.76428 1.46432 0
1 0.761313 1.44455 0
1 0.758343 1.42477 0
1 0.755368 1.40497 0
1 0.752415 1.38515 0
1 0.74947 1.36532 0
1 0.746557 1.34546 0
1 0.743665 1.32558 0
1 0.740805 1.3057 0
1 0.737986 1.28577 0
1 0.735198 1.26581 0
1 0.73247 1.24587 0
1 0.729814 1.22586 0
1 0.72724 1.20582 0
1 0.724659 1.18577 0
1 0.722168 1.16572 0
1 0.719779 1.14562 0
1 0.717493 1.12552 0
1 0.715304 1.10537 0
1 0.713089 1.08518 0
1 0.711123 1.06504 0
1 0.709172 1.04486 0
1 0.707244 1.02465 0
1 0.705533 1.00452 0
1 0.70402 0.984237 0
1 0.702582 0.963883 0
1 0.701176 0.94349 0
1 0.699978 0.923088 0
1 0.698943 0.902761 0
1 0.698133 0.882308 0
1 0.697541 0.86174 0
1 0.696974 0.841141 0
1 0.696741 0.820633 0
4 0.71557 0.800147 1.81228e-17
4 0.734693 0.800194 1.43045e-17
4 0.753817 0.800242 1.04862e-17
4 0.772941 0.800289 6.66795e-18
4 0.792065 0.800336 2.84967e-18
1 0.811481 0.819828 0
1 0.811689 0.83934 0
1 0.812137 0.858785 0
1 0.812887 0.878233 0
1 0.813556 0.897656 0
1 0.81454 0.917199 0
1 0.815682 0.936689 0
1 0.817036 0.956177 0
1 0.818389 0.975717 0
1 0.819933 0.995286 0
1 0.821601 1.01484 0
1 0.823386 1.03443 0
1 0.825326 1.05399 0
1 0.827237 1.07356 0
1 0.829365 1.0932 0
1 0.831543 1.11284 0
1 0.833735 1.13249 0
1 0.836087 1.15219 0
1 0.838557 1.17182 0
1 0.841065 1.19143 0
1 0.843583 1.21106 0
1 0.846201 1.23069 0
1 0.8489 1.25037 0
1 0.851642 1.27002 0
1 0.854417 1.28969 0
1 0.857252 1.30939 0
1 0.860122 1.32907 0
1 0.863014 1.34878 0
1 0.865941 1.3685 0
1 0.868881 1.38823 0
1 0.871848 1.40797 0
1 0.874818 1.42773 0
1 0.87779 1.44751 0
1 0.880754 1.4673 0
1 0.883701 1.48711 0
1 0.886642 1.50695 0
1 0.889585 1.52681 0
1 0.892488 1.54669 0
1 0.895361 1.56657 0
1 0.898167 1.58649 0
1 0.90091 1.60646 0
1 0.903668 1.62646 0
1 0.906342 1.64645 0
1 0.908935 1.6665 0
1 0.911442 1.68654 0
1 0.913847 1.70664 0
1 0.916262 1.72679 0
1 0.918566 1.74693 0
1 0.920707 1.76703 0
1 0.922767 1.78718 0
1 0.924759 1.80737 0
1 0.926652 1.82754 0
1 0.928351 1.84782 0
1 0.929874 1.86818 0
1 0.931428 1.88859 0
1 0.932822 1.90895 0
1 0.933977 1.92924 0
1 0.934993 1.94959 0
1 0.935891 1.96995 0
1 0.936677 1.99028 0
1 0.937188 2.01076 0
1 0.937454 2.03134 0
1 0.937755 2.05197 0
1 0.937839 2.07251 0
1 0.937628 2.09292 0
1 0.93727 2.11344 0
1 0.936598 2.13402 0
1 0.935981 2.15465 0
1 0.934843 2.17518 0
1 0.933631 2.19575 0
1 0.932342 2.21629 0
1 0.930688 2.23663 0
1 0.928628 2.25714 0
1 0.926419 2.27777 0
1 0.92412 2.29838 0
1 0.921501 2.31896 0
1 0.918613 2.33938 0
1 0.915246 2.35991 0
1 0.911454 2.3805 0
1 0.907696 2.40117 0
1 0.903658 2.42162 0
1 0.899167 2.44178 0
1 0.894384 2.46198 0
1 0.889382 2.48209 0
1 0.884168 2.5021 0
1 0.878388 2.5222 0
1 0.872137 2.54232 0
1 0.865897 2.56256 0
1 0.85935 2.5825 0
1 0.852305 2.60205 0
1 0.844977 2.62164 0
1 0.83734 2.64123 0
1 0.829373 2.66046 0
1 0.820906 2.67975 0
1 0.812233 2.69892 0
1 0.80329 2.71775 0
1 0.793778 2.73662 0
1 0.783995 2.75535 0
1 0.773963 2.77369 0
1 0.763437 2.79202 0
1 0.752349 2.8101 0
1 0.74122 2.8281 0
1 0.729617 2.84568 0
1 0.717648 2.86298 0
1 0.705488 2.8801 0
1 0.692866 2.89712 0
1 0.680038 2.91394 0
1 0.666675 2.93044 0
1 0.653035 2.94657 0
1 0.638994 2.96241 0
1 0.624845 2.97811 0
1 0.609742 2.99327 0
1 0.594643 3.00851 0
1 0.579116 3.02319 0
1 0.563414 3.03729 0
1 0.547099 3.05116 0
1 0.530522 3.0647 0
1 0.513861 3.07765 0
1 0.496653 3.09035 0
1 0.478941 3.10248 0
1 0.461225 3.11448 0
1 0.44325 3.12587 0
1 0.424928 3.13685 0
1 0.40645 3.14737 0
1 0.387604 3.15738 0
1 0.368706 3.16714 0
1 0.349076 3.17601 0
1 0.32948 3.18487 0
1 0.309769 3.19294 0
1 0.290141 3.20065 0
1 0.269853 3.2077 0
1 0.249071 3.2141 0
1 0.228195 3.22055 0
1 0.207466 3.22631 0
1 0.186854 3.23111 0
1 0.165979 3.23556 0
1 0.144776 3.23922 0
1 0.123611 3.24268 0
1 0.102443 3.24544 0
1 0.0810786 3.24765 0
1 0.0597879 3.24924 0
1 0.0384978 3.25043 0
1 0.0173785 3.25125 0
1 -0.00408449 3.25107 0
1 -0.0256635 3.25045 0
1 -0.0471337 3.24931 0
1 -0.0684766 3.24794 0
1 -0.0899419 3.24526 0
1 -0.111446 3.24266 0
1 -0.132741 3.23933 0
1 -0.153607 3.23542 0
1 -0.174671 3.23082 0
1 -0.195609 3.22544 0
1 -0.216503 3.21988 0
1 -0.23717 3.21404 0
1 -0.257231 3.20716 0
1 -0.277496 3.20013 0
1 -0.29756 3.19247 0
1 -0.317275 3.18485 0
1 -0.336377 3.17581 0
1 -0.356004 3.1669 0
1 -0.375037 3.15741 0
1 -0.393878 3.14732 0
1 -0.412409 3.13666 0
1 -0.430707 3.12605 0
1 -0.448652 3.1144 0
1 -0.466511 3.10243 0
1 -0.484262 3.09035 0
1 -0.501515 3.07769 0
1 -0.518203 3.0648 0
1 -0.53471 3.05123 0
1 -0.550858 3.03748 0
1 -0.566668 3.02359 0
1 -0.582173 3.00893 0
1 -0.597355 2.99367 0
1 -0.61255 2.97843 0
1 -0.626979 2.96274 0
1 -0.64129 2.94707 0
1 -0.655092 2.9311 0
1 -0.668534 2.91471 0
1 -0.681501 2.89808 0
1 -0.694067 2.88104 0
1 -0.706604 2.86392 0
1 -0.71861 2.84623 0
1 -0.730611 2.82853 0
1 -0.741732 2.81052 0
1 -0.752876 2.79258 0
1 -0.763413 2.77441 0
1 -0.773614 2.75598 0
1 -0.783326 2.73734 0
1 -0.792829 2.71854 0
1 -0.801894 2.69972 0
1 -0.810698 2.68074 0
1 -0.819159 2.66162 0
1 -0.827185 2.64219 0
1 -0.835163 2.6227 0
1 -0.84262 2.60309 0
1 -0.849669 2.58354 0
1 -0.85642 2.56367 0
1 -0.862721 2.5436 0
1 -0.869006 2.52354 0
1 -0.874817 2.50345 0
1 -0.880186 2.48346 0
1 -0.885294 2.46322 0
1 -0.890215 2.44293 0
1 -0.89473 2.42274 0
1 -0.898956 2.40232 0
1 -0.902772 2.38177 0
1 -0.90658 2.36125 0
1 -0.909978 2.34074 0
1 -0.913004 2.32037 0
1 -0.915781 2.29983 0
1 -0.918178 2.2792 0
1 -0.920518 2.25863 0
1 -0.922524 2.23811 0
1 -0.92431 2.21753 0
1 -0.925847 2.197 0
1 -0.926995 2.17639 0
1 -0.928188 2.15578 0
1 -0.928899 2.13504 0
1 -0.929625 2.11435 0
1 -0.930121 2.0938 0
1 -0.930309 2.07338 0
1 -0.930364 2.05289 0
1 -0.930124 2.03233 0
1 -0.929889 2.01178 0
1 -0.929402 1.99128 0
1 -0.928703 1.97091 0
1 -0.927819 1.95046 0
1 -0.926817 1.93005 0
1 -0.925663 1.90974 0
1 -0.924344 1.88937 0
1 -0.922813 1.86899 0
1 -0.921296 1.84864 0
1 -0.91961 1.82836 0
1 -0.917778 1.80818 0
1 -0.915835 1.78797 0
1 -0.913829 1.76777 0
1 -0.911702 1.74765 0
1 -0.909469 1.7275 0
1 -0.907095 1.70736 0
1 -0.904737 1.68724 0
1 -0.902268 1.66718 0
1 -0.899716 1.64718 0
1 -0.89709 1.62717 0
1 -0.894371 1.60717 0
1 -0.891672 1.58719 0
1 -0.888907 1.56726 0
1 -0.886084 1.54738 0
1 -0.883232 1.52749 0
1 -0.880364 1.50763 0
1 -0.877465 1.4878 0
1 -0.874551 1.46797 0
1 -0.871634 1.44816 0
1 -0.868706 1.42838 0
1 -0.865787 1.40861 0
1 -0.862875 1.38886 0
1 -0.859971 1.36912 0
1 -0.857102 1.34939 0
1 -0.854264 1.32968 0
1 -0.851431 1.30999 0
1 -0.848616 1.2903 0
1 -0.845858 1.27058 0
1 -0.843186 1.25089 0
1 -0.840525 1.23121 0
1 -0.837891 1.21154 0
1 -0.835392 1.19191 0
1 -0.83287 1.17229 0
1 -0.830427 1.15267 0
1 -0.828092 1.13306 0
1 -0.825858 1.11343 0
1 -0.823726 1.09383 0
1 -0.821571 1.07428 0
1 -0.819648 1.05463 0
1 -0.817743 1.035 0
1 -0.815862 1.01541 0
1 -0.814184 0.995712 0
1 -0.812721 0.976121 0
1 -0.811344 0.956591 0
1 -0.809982 0.937095 0
1 -0.808828 0.917587 0
1 -0.807823 0.897989 0
1 -0.807049 0.878494 0
1 -0.806493 0.859096 0
1 -0.805944 0.839734 0
1 -0.805734 0.820268 0
4 -0.786321 0.800783 0
4 -0.767197 0.80074 0
4 -0.748073 0.800698 0
4 -0.728949 0.800656 0
4 -0.709825 0.800613 0
4 -0.838317 0.54279 0
4 -0.932679 0.516029 0
4 -1.03757 0.459541 0
4 -1.1462 0.355351 0
4 -1.22153 0.216264 0
4 -1.24963 0.060609 0
4 -1.22772 -0.0960389 0
4 -1.15796 -0.238001 0
4 -1.04736 -0.351072 0
4 -0.906965 -0.423934 0
4 -0.750839 -0.449299 0
4 -0.594602 -0.424626 0
4 -0.45389 -0.352385 0
4 -0.342784 -0.239804 0
4 -0.272404 -0.0981526 0
4 -0.249791 0.0583967 0
4 -0.277212 0.214175 0
4 -0.35192 0.353593 0
4 -0.46009 0.458263 0
4 -0.564729 0.515215 0
4 -0.658972 0.542393 0
4 0.913032 -0.424349 -3.78255e-17
4 1.0534 -0.351449 -6.48736e-17
4 1.16398 -0.238349 -8.54294e-17
4 1.2337 -0.0963677 -9.7436e-17
4 1.25557 0.060285 -9.96918e-17
4 1.22742 0.215933 -9.19711e-17
4 1.15206 0.355 -7.50463e-17
4 1.0434 0.459161 -5.19426e-17
4 0.938498 0.515621 -3.02322e-17
4 0.844129 0.542358 -1.10269e-17
4 0.754436 0.550243 6.99055e-18
4 0.664784 0.541914 2.47812e-17
4 0.570549 0.51471 4.32324e-17
4 0.465925 0.457731 6.33566e-17
4 0.357782 0.353033 8.35398e-17
4 0.283111 0.213594 9.65703e-17
4 0.255731 0.0578091 9.99365e-17
4 0.278385 -0.0987333 9.33013e-17
4 0.348802 -0.240367 7.73291e-17
4 0.459938 -0.352918 5.36178e-17
4 0.600669 -0.425122 2.45408e-17
4 -0.00106213 -0.550958 0
4 -0.000730238 -0.400958 0
4 -0.000398347 -0.250959 0
4 -6.64552e-05 -0.100959 0
4 0.000265436 0.0490404 0
4 0.000597328 0.19904 0
4 0.000929219 0.34904 0
4 0.00126111 0.499039 0
4 0.001593 0.649039 0
4 -1.35139 -0.697971 0
4 -1.20139 -0.698303 0
4 -1.05139 -0.698635 0
4 -0.901392 -0.698966 0
4 -0.751392 -0.699298 0
4 -0.601393 -0.69963 0
4 -0.451393 -0.699962 0
4 -0.301393 -0.700294 0
4 -0.151394 -0.700626 0
4 -0.151506 0.799378 0
4 -0.294242 0.799694 0
4 -0.40442 0.799938 0
4 -0.488653 0.800124 0
4 -0.553051 0.800267 0
4 -0.602285 0.800375 0
4 -0.639925 0.800459 0
4 -0.668701 0.800522 0
4 -0.827445 0.800874 0
4 -0.856222 0.800937 0
4 -0.893862 0.801021 0
4 -0.943096 0.80113 0
4 -1.00749 0.801272 0
4 -1.09173 0.801458 0
4 -1.2019 0.801702 0
4 -1.34464 0.802018 0
4 -1.4984 0.652358 0
4 -1.49874 0.502358 0
4 -1.49907 0.352359 0
4 -1.4994 0.202359 0
4 -1.49973 0.0523593 0
4 -1.50006 -0.0976403 0
4 -1.50039 -0.24764 0
4 -1.50073 -0.39764 0
4 -1.50106 -0.547639 0
4 0.00419117 0.648385 1.58133e-16
4 0.00456261 0.498386 1.56036e-16
4 0.00493404 0.348386 1.53938e-16
4 0.00530548 0.198386 1.51841e-16
4 0.00567691 0.0483869 1.49744e-16
4 0.00604835 -0.101613 1.47646e-16
4 0.00641978 -0.251612 1.45549e-16
4 0.00679122 -0.401612 1.43451e-16
4 0.00716265 -0.551611 1.41354e-16
4 1.35038 0.801719 -1.08624e-16
4 1.20765 0.801366 -8.01253e-17
4 1.09747 0.801093 -5.81275e-17
4 1.01324 0.800884 -4.13096e-17
4 0.94884 0.800725 -2.84519e-17
4 0.899606 0.800603 -1.86219e-17
4 0.861966 0.80051 -1.11067e-17
4 0.833189 0.800438 -5.36112e-18
4 0.674446 0.800045 2.63336e-17
4 0.645669 0.799974 3.20792e-17
4 0.608029 0.799881 3.95944e-17
4 0.558795 0.799759 4.94244e-17
4 0.494397 0.799599 6.2282e-17
4 0.410164 0.799391 7.90999e-17
4 0.299987 0.799118 1.01098e-16
4 0.15725 0.798765 1.29597e-16
4 0.157534 -0.701239 1.09308e-16
4 0.307533 -0.700868 7.93588e-17
4 0.457533 -0.700497 4.94099e-17
4 0.607532 -0.700125 1.9461e-17
4 0.757532 -0.699754 -1.04879e-17
4 0.907531 -0.699382 -4.04368e-17
4 1.05753 -0.699011 -7.03856e-17
4 1.20753 -0.698639 -1.00335e-16
4 1.35753 -0.698268 -1.30283e-16
4 1.50716 -0.547897 -1.58135e-16
4 1.50679 -0.397897 -1.56037e-16
4 1.50642 -0.247898 -1.5394e-16
4 1.50604 -0.0978983 -1.51843e-16
4 1.50567 0.0521012 -1.49745e-16
4 1.5053 0.202101 -1.47648e-16
4 1.50493 0.3521 -1.4555e-16
4 1.50456 0.5021 -1.43453e-16
4 1.50419 0.652099 -1.41356e-16
1 -0.748734 0.857525 0
1 0.754548 0.857104 0
1 -0.133027 3.1802 0
1 0.184213 3.17367 0
1 -0.870182 2.18225 0
1 -0.754708 0.96851 0
1 0.759883 0.968057 0
1 -0.82335 2.47841 0
1 -0.589781 2.92054 0
1 -0.475311 3.02644 0
1 0.876828 2.17794 0
1 0.487512 3.0265 0
1 0.602873 2.91732 0
1 0.831135 2.47727 0
1 -0.761648 1.05161 0
1 0.767103 1.05112 0
1 -0.862434 2.26402 0
1 0.870857 2.26298 0
1 0.779635 2.62876 0
1 -0.768377 1.11181 0
1 -0.77067 2.63132 0
1 0.772953 1.1114 0
1 -0.777126 1.19021 0
1 0.782987 1.18971 0
1 -0.836964 2.42029 0
1 0.845838 2.41927 0
1 -0.7847 1.25021 0
1 0.789599 1.24833 0
1 -0.795365 1.32643 0
1 0.807682 1.36694 0
1 0.865225 2.32065 0
1 -0.855899 2.32181 0
1 -0.804624 1.38721 0
1 -0.820965 1.50632 0
1 -0.831365 1.5651 0
1 0.876316 1.92225 0
1 0.850501 1.66051 0
1 0.836516 1.56473 0
1 0.828682 1.50632 0
1 0.79898 1.3076 0
1 -0.843657 1.66115 0
1 -0.862358 1.82319 0
1 -0.869167 1.92301 0
1 0.869286 1.8225 0
1 0.880632 2.08205 0
1 -0.873127 2.08291 0
1 0.878517 1.98209 0
1 -0.855844 1.76361 0
1 -0.871376 1.98292 0
1 0.862705 1.76295 0
1 -0.266368 3.14443 0
1 -0.190283 3.16845 0
1 0.0469028 3.19376 0
1 0.126298 3.18403 0
1 -0.0345628 3.19326 0
1 0.279574 3.144 0
1 -0.359028 3.10242 0
1 0.370377 3.10253 0
1 -0.520587 2.9877 0
1 -0.422954 3.06243 0
1 0.44087 3.06138 0
1 0.532091 2.98726 0
1 -0.69727 2.77596 0
1 -0.645542 2.85257 0
1 0.653797 2.85572 0
1 0.700768 2.78783 0
1 0.802342 2.57299 0
1 -0.792721 2.57394 0
1 0.729266 2.73721 0
1 -0.738733 2.70158 0
1 0.816469 1.42479 0
1 0.756525 2.68379 0
1 -0.814675 1.44662 0
1 0.753425 0.913601 0
1 -0.754303 0.913716 0
1 -0.844997 1.7136 0
1 0.85947 1.70933 0
1 -0.860692 1.87407 0
1 0.878069 1.8726 0
1 -0.8019 2.52439 0
1 0.821865 2.52806 0
1 -0.840012 2.36998 0
1 0.862276 2.37153 0
1 -0.870079 2.02932 0
1 0.56454 2.94859 0
1 -0.562281 2.95569 0
1 0.885547 2.03109 0
1 0.323939 3.11966 0
1 -0.315783 3.12885 0
1 -0.0825676 3.18224 0
1 0.232733 3.16578 0
1 -0.87704 2.13401 0
1 0.874662 2.12997 0
1 -0.677369 2.81834 0
1 -0.83421 1.61152 0
1 0.846548 1.61017 0
1 0.762815 1.15077 0
1 -0.787203 1.1478 0
1 -0.745317 1.01137 0
1 0.77585 1.00881 0
1 -0.772587 1.2907 0
1 0.638933 2.89432 0
1 -0.383169 3.0664 0
1 0.808247 1.46725 0
1 0.00610691 3.18214 0
1 -0.766044 2.67463 0
1 -0.73244 2.74522 0
1 -0.224662 3.14254 0
1 0.0874895 3.20579 0
1 -0.632506 2.8988 0
1 0.412361 3.09501 0
1 0.684615 2.82714 0
1 -0.880804 2.22469 0
1 0.860274 2.22113 0
1 0.846129 1.46236 0
1 -0.808664 1.28577 0
1 0.739658 1.01178 0
1 -0.781493 1.00834 0
1 0.657842 2.80926 0
1 0.00564717 3.21719 0
1 -0.842844 2.22064 0
1 0.898356 2.22368 0
1 -0.735236 2.6574 0
1 -0.601045 2.87287 0
1 -0.699284 2.7267 0
1 0.0834614 3.16891 0
1 0.393812 3.06428 0
1 -0.236651 3.17959 0
1 0.611588 2.87248 0
1 -0.404056 3.10129 0
1 -0.749241 1.1522 0
1 0.800783 1.14637 0
1 0.852513 1.52982 0
1 -0.805831 1.53847 0
1 -0.847115 1.53264 0
1 0.810755 1.53636 0
1 -0.760658 1.22366 0
1 0.808427 1.21404 0
1 0.776704 1.27996 0
1 -0.849397 1.95162 0
1 0.898729 1.95125 0
1 0.815407 1.27506 0
1 0.766734 1.21943 0
1 -0.799732 1.2165 0
1 -0.797157 1.47919 0
1 0.472875 3.06416 0
1 0.159486 3.20079 0
1 -0.168004 3.1946 0
1 0.752337 2.64953 0
1 0.724682 2.70116 0
1 0.45101 3.02783 0
1 0.857056 1.95311 0
1 -0.888868 1.95262 0
1 -0.439145 3.02717 0
1 0.788032 2.66507 0
1 0.75957 2.71858 0
1 0.149218 3.15926 0
1 0.790577 1.4016 0
1 0.832112 1.39507 0
1 -0.159805 3.15313 0
1 0.69634 2.75315 0
1 0.731058 2.77757 0
1 -0.462052 3.06257 0
1 -0.485257 2.99155 0
1 0.522741 3.02128 0
1 -0.511968 3.02352 0
1 0.497461 2.99163 0
1 -0.809881 2.44446 0
1 0.890075 2.29141 0
1 -0.839438 2.28746 0
1 0.859333 2.45342 0
1 0.785387 1.34028 0
1 -0.881265 2.29338 0
1 0.818816 2.44348 0
1 -0.850262 2.45454 0
1 0.772486 2.59357 0
1 -0.800876 2.61353 0
1 0.848013 2.28724 0
1 -0.778235 1.35685 0
1 -0.835827 1.47404 0
1 -0.820644 1.35404 0
1 0.823939 1.33431 0
1 -0.762312 2.59364 0
1 0.81088 2.60619 0
1 -0.791101 1.41991 0
1 -0.829642 1.41389 0
1 -0.838135 1.79542 0
1 0.886721 1.7884 0
1 0.749673 1.08365 0
1 -0.785249 1.08003 0
1 -0.879629 1.79147 0
1 0.847783 1.79496 0
1 -0.745553 1.08191 0
1 0.788931 1.07754 0
1 -0.728617 0.886888 0
1 0.776761 0.884865 0
1 -0.732093 0.944745 0
1 0.779106 0.94179 0
1 -0.89484 2.05448 0
1 0.856774 2.0538 0
1 -0.848736 2.11054 0
1 0.902783 2.11234 0
1 -0.82196 2.55019 0
1 -0.644585 2.81946 0
1 0.24424 3.13255 0
1 0.839173 1.73366 0
1 0.79178 2.5374 0
1 -0.0639883 3.21285 0
1 -0.323585 3.09555 0
1 0.354943 3.13455 0
1 -0.87464 1.73185 0
1 -0.284992 3.11304 0
1 0.314962 3.15525 0
1 -0.556846 2.92313 0
1 -0.665404 2.78466 0
1 0.570541 2.98234 0
1 0.597255 2.95246 0
1 -0.530596 2.9518 0
1 -0.895191 2.01233 0
1 0.857541 2.01238 0
1 -0.834556 2.51404 0
1 -0.849281 2.15368 0
1 0.89827 2.15257 0
1 0.837804 2.34756 0
1 -0.871207 2.35584 0
1 0.20662 3.14471 0
1 -0.104237 3.20662 0
1 0.819095 1.59728 0
1 -0.857132 1.59174 0
1 0.832422 2.38428 0
1 -0.863057 2.39316 0
1 0.802483 2.49963 0
1 0.832231 1.69599 0
1 -0.87016 1.69125 0
1 0.851925 1.894 0
1 -0.889677 1.89181 0
1 0.849126 1.85374 0
1 0.826696 1.63488 0
1 -0.859948 1.63023 0
1 -0.886311 1.85097 0
1 0.733713 0.886363 0
1 -0.771582 0.885071 0
1 0.736957 0.944379 0
1 -0.774247 0.942249 0
1 0.72832 0.834549 0
1 -0.774112 0.834391 0
1 -0.721833 0.834205 0
1 0.780537 0.833093 0
1 -0.821785 1.68924 0
1 0.878704 1.6825 0
1 -0.828863 1.74392 0
1 0.885109 1.73833 0
1 -0.840506 1.8476 0
1 0.893774 1.84315 0
1 -0.828896 2.33973 0
1 0.882995 2.34629 0
1 0.847929 2.5056 0
1 0.833065 2.56006 0
1 -0.794427 2.49308 0
1 -0.776162 2.54504 0
1 -0.843135 1.90212 0
1 0.899438 1.89823 0
1 -0.816957 2.39365 0
1 0.874737 2.40271 0
1 0.852788 2.15937 0
1 -0.894429 2.16478 0
1 0.569155 2.91476 0
1 -0.59688 2.95133 0
1 -0.0528941 3.1663 0
1 0.266428 3.1732 0
1 0.533538 2.95633 0
1 0.902998 2.00408 0
1 -0.553046 2.98992 0
1 -0.849383 2.00595 0
1 0.340913 3.09068 0
1 -0.350069 3.13329 0
1 -0.70898 2.804 0
1 -0.897332 2.10607 0
1 -0.107241 3.16062 0
1 0.212398 3.19163 0
1 -0.848161 2.06083 0
1 0.291253 3.11357 0
1 -0.294169 3.15598 0
1 0.855249 2.10347 0
1 0.905284 2.05951 0
1 -0.677027 2.85366 0
1 -0.810873 1.59068 0
1 0.863311 1.5838 0
1 -0.81628 1.64614 0
1 0.873066 1.63908 0
1 0.752557 1.18019 0
1 -0.804293 1.1737 0
1 -0.727324 0.981844 0
1 0.788986 0.97731 0
1 0.746649 1.12411 0
1 -0.796923 1.11854 0
1 -0.766443 1.32004 0
1 -0.620264 2.92655 0
1 -0.791947 2.6518 0
1 -0.657299 2.8814 0
1 -0.400851 3.04335 0
1 0.843995 2.2495 0
1 -0.756104 2.7259 0
1 -0.891388 2.25645 0
1 0.630737 2.9283 0
1 -0.353588 3.07401 0
1 -0.248579 3.12168 0
1 0.715149 2.81399 0
1 0.0601715 3.21984 0
1 0.391918 3.12254 0
1 0.0326501 3.16656 0
1 0.66804 2.88126 0
1 -0.194684 3.13712 0
1 -0.728331 2.77625 0
1 0.121843 3.2139 0
1 -0.0212924 3.1655 0
1 0.443358 3.09095 0
1 -0.896227 2.1965 0
1 0.849026 2.19161 0
1 -0.732733 1.04362 0
1 0.79405 1.03795 0
1 -0.758629 1.26411 0
1 0.798039 1.49755 0
1 0.790299 1.4394 0
1 -0.821665 1.31514 0
1 -0.741729 1.12094 0
1 0.801025 1.11451 0
1 0.845064 1.43177 0
1 0.738953 1.04257 0
1 -0.787733 1.0381 0
1 -0.614745 2.84649 0
1 -0.706723 2.69986 0
1 0.637858 2.82834 0
1 0.589675 2.89062 0
1 0.904084 2.19371 0
1 -0.841407 2.19093 0
1 -0.432335 3.09028 0
1 0.366348 3.0731 0
1 -0.380911 3.1211 0
1 -0.266145 3.17321 0
1 0.416421 3.04341 0
1 -0.577894 2.89144 0
1 -0.024935 3.22117 0
1 -0.207836 3.19179 0
1 -0.742291 2.62732 0
1 0.110627 3.15925 0
1 -0.748984 1.18355 0
1 0.808634 1.17647 0
1 0.671689 2.78106 0
1 -0.680247 2.74951 0
1 0.733548 0.982883 0
1 -0.783006 0.979285 0
1 -0.836469 2.25018 0
1 0.899011 2.25466 0
1 0.854009 1.49248 0
1 -0.8131 1.25403 0
1 0.769722 1.31172 0
1 0.819927 1.24428 0
1 -0.784153 1.45078 0
1 -0.791393 1.51009 0
1 0.752227 2.61685 0
1 0.777113 1.37162 0
1 0.469394 3.0031 0
1 -0.493233 3.04967 0
1 -0.775377 1.39143 0
1 0.838262 1.36226 0
1 -0.457183 3.00302 0
1 0.505488 3.04968 0
1 -0.833882 1.383 0
1 0.728497 2.67058 0
1 0.703341 2.72295 0
1 0.755011 2.75138 0
1 0.808071 2.64033 0
1 0.784392 2.6969 0
1 -0.851413 1.5017 0
1 0.76133 1.25212 0
1 0.828253 1.30347 0
1 -0.844098 1.44189 0
1 0.806422 1.56855 0
1 -0.861334 1.5605 0
1 -0.901446 1.98199 0
1 0.84815 1.98271 0
1 0.17739 3.14485 0
1 -0.852487 2.48618 0
1 0.553078 3.00996 0
1 -0.138187 3.21065 0
1 -0.500334 2.96508 0
1 0.80187 2.46904 0
1 0.816938 2.41284 0
1 -0.865674 2.42683 0
1 0.834341 2.31664 0
1 -0.885753 2.32619 0
1 -0.898635 1.92144 0
1 0.846775 1.92389 0
1 -0.820355 2.58402 0
1 0.774476 2.563 0
1 0.833291 1.76604 0
1 -0.885215 1.7606 0
1 -0.892489 1.82012 0
1 0.839255 1.82524 0
1 0.821473 1.66745 0
1 -0.873489 1.66065 0
1 -0.72164 0.915744 0
1 0.786164 0.91255 0
1 0.725097 0.913917 0
1 -0.782589 0.911304 0
1 -0.770345 2.70234 0
1 0.68609 2.86038 0
1 -0.718834 0.861577 0
1 0.784728 0.859646 0
1 -0.839586 1.93073 0
1 0.907185 1.92524 0
1 0.893125 1.766 0
1 -0.82576 1.77128 0
1 -0.794084 2.46618 0
1 -0.762376 2.56852 0
1 -0.805999 2.41783 0
1 0.862497 2.48082 0
1 0.874668 2.43057 0
1 -0.131598 3.15077 0
1 -0.825503 2.31283 0
1 0.185577 3.20424 0
1 0.894594 2.32086 0
1 0.509656 2.96818 0
1 -0.79991 1.56395 0
1 0.866904 1.55584 0
1 -0.537003 3.01435 0
1 0.828848 2.58838 0
1 -0.840231 1.97976 0
1 0.90962 1.97641 0
1 -0.830694 1.82145 0
1 0.899765 1.81562 0
1 0.0583786 3.16153 0
1 0.0322834 3.225 0
1 0.722674 0.861018 0
1 -0.780988 0.859795 0
1 0.849842 2.07625 0
1 -0.842236 2.08794 0
1 -0.904145 2.07852 0
1 0.91161 2.08727 0
1 0.295949 3.17045 0
1 0.264336 3.11641 0
1 -0.715936 2.67448 0
1 0.619365 2.84783 0
1 0.753948 0.825655 0
1 -0.748211 0.82611 0
1 0.892346 1.70876 0
1 -0.814686 1.71758 0
1 -0.831406 1.87365 0
1 0.906799 1.86796 0
1 0.850907 2.53376 0
1 -0.776242 2.51423 0
1 -0.813346 2.36297 0
1 0.889319 2.37452 0
1 -0.580037 2.97889 0
1 0.543626 2.93053 0
1 -0.905914 2.13611 0
1 0.309506 3.09394 0
1 -0.325233 3.15606 0
1 0.845138 2.13278 0
1 0.244132 3.19195 0
1 -0.0772536 3.15504 0
1 -0.700818 2.83192 0
1 0.914483 2.02972 0
1 -0.838665 2.03129 0
1 -0.803355 1.61735 0
1 0.877794 1.60766 0
1 -0.796303 1.30363 0
1 -0.767382 1.13421 0
1 0.778946 1.13302 0
1 -0.761777 1.02427 0
1 0.761862 1.02426 0
1 -0.62641 2.87235 0
1 -0.723728 2.72242 0
1 -0.411294 3.07491 0
1 0.666152 2.83259 0
1 -0.212658 3.16313 0
1 0.101148 3.1856 0
1 -0.757893 2.65017 0
1 0.618097 2.89561 0
1 -0.377213 3.09383 0
1 0.390515 3.08836 0
1 -0.759244 0.995775 0
1 0.759513 0.995711 0
1 -0.245932 3.15306 0
1 0.0230832 3.19744 0
1 -0.605458 2.89792 0
1 -0.00834217 3.19713 0
1 0.0655967 3.18822 0
1 0.877467 2.20618 0
1 -0.866198 2.207 0
1 -0.745325 2.68086 0
1 0.682168 2.80839 0
1 0.415345 3.07221 0
1 0.636789 2.87234 0
1 -0.773412 1.16741 0
1 0.780913 1.16668 0
1 -0.708495 2.75083 0
1 0.822894 1.45081 0
1 0.875937 2.23665 0
1 -0.862706 2.23724 0
1 -0.791858 1.27191 0
1 0.826141 1.4833 0
1 -0.879332 1.70937 0
1 0.826766 1.71575 0
1 0.843537 1.87578 0
1 -0.895222 1.87222 0
1 0.78617 2.51567 0
1 -0.839803 2.53636 0
1 0.822843 2.36429 0
1 -0.87911 2.37733 0
1 -0.841192 2.13304 0
1 -0.534311 2.93031 0
1 0.850331 2.03104 0
1 0.592745 2.97603 0
1 -0.30239 3.09746 0
1 0.33944 3.15158 0
1 0.222173 3.12846 0
1 -0.0867988 3.22113 0
1 0.912254 2.13359 0
1 -0.644127 2.79582 0
1 -0.903566 2.03164 0
1 0.813972 1.61717 0
1 -0.867423 1.60967 0
1 -0.80973 1.66984 0
1 0.885505 1.66053 0
1 0.872628 1.84789 0
1 -0.832421 1.59002 0
1 0.842422 1.58898 0
1 -0.862357 1.84885 0
1 0.882679 2.05635 0
1 0.861452 2.34448 0
1 -0.850013 2.34507 0
1 -0.872004 2.15501 0
1 0.302508 3.13312 0
1 -0.294536 3.13263 0
1 0.25866 3.15323 0
1 0.344745 3.11386 0
1 -0.333696 3.11648 0
1 0.209499 3.16937 0
1 -0.055809 3.19014 0
1 -0.111267 3.18136 0
1 -0.53868 2.97603 0
1 0.82634 2.50323 0
1 -0.874675 2.10866 0
1 -0.577452 2.93645 0
1 -0.688389 2.79234 0
1 -0.869632 2.06212 0
1 0.586508 2.92948 0
1 -0.658654 2.8408 0
1 0.549792 2.97092 0
1 0.881893 2.00801 0
1 -0.814792 2.50084 0
1 0.876501 1.8953 0
1 0.811311 2.55115 0
1 0.853872 2.39924 0
1 -0.837665 2.39871 0
1 -0.845599 1.69124 0
1 0.856116 1.69016 0
1 0.878835 2.10557 0
1 0.874725 2.16097 0
1 -0.870777 2.00838 0
1 -0.837424 1.64354 0
1 -0.865563 1.89627 0
1 0.851965 1.64191 0
1 -0.796099 2.55261 0
1 -0.850836 1.73816 0
1 0.86412 1.74142 0
1 0.796936 1.51968 0
1 0.751124 1.20241 0
1 -0.810841 1.19466 0
1 0.141228 3.21643 0
1 0.835966 2.26783 0
1 -0.173294 3.1381 0
1 0.466122 3.08325 0
1 -0.415929 3.02795 0
1 -0.895347 2.27669 0
1 0.73274 2.79772 0
1 -0.763992 1.34282 0
1 0.781246 1.42116 0
1 -0.728951 1.06387 0
1 0.801724 1.05682 0
1 -0.805805 2.63311 0
1 -0.750044 1.24281 0
1 0.738599 1.10255 0
1 -0.80019 1.09601 0
1 -0.831306 1.33368 0
1 0.848785 1.4106 0
1 -0.189259 3.20363 0
1 0.130197 3.14913 0
1 -0.454346 3.08348 0
1 0.428394 3.02688 0
1 -0.747275 1.20679 0
1 0.818268 1.19501 0
1 0.675373 2.7615 0
1 0.863911 1.51021 0
1 -0.74276 2.6068 0
1 0.73598 1.06565 0
1 -0.79511 1.05992 0
1 -0.827288 2.26841 0
1 0.903939 2.2757 0
1 -0.734868 1.0996 0
1 0.803124 1.09244 0
1 -0.815246 1.23174 0
1 -0.719654 0.963354 0
1 0.794037 0.958276 0
1 0.622504 2.94709 0
1 -0.262971 3.10796 0
1 -0.33379 3.07583 0
1 0.377553 3.1373 0
1 -0.748873 0.881334 0
1 0.755988 0.880869 0
1 -0.753725 0.951283 0
1 0.758459 0.950865 0
1 -0.620552 2.82612 0
1 -0.0464182 3.22731 0
1 -0.559072 2.90107 0
1 0.912646 2.17346 0
1 -0.663515 2.76253 0
1 -0.835142 2.17041 0
1 -0.764132 1.0717 0
1 0.768622 1.07128 0
1 0.796557 1.28613 0
1 0.865355 1.78437 0
1 -0.859046 1.78413 0
1 0.812709 1.40577 0
1 0.869563 2.28218 0
1 -0.800942 1.36557 0
1 0.802714 1.32889 0
1 -0.861476 2.28268 0