LAMMPS DATA FILE 

14773 atoms 
36994 bonds 

5 atom types 
36994 bond types 

-3.645633 3.644367 xlo xhi 
-3.186350 3.187264 ylo yhi 
-0.100000 0.100000 zlo zhi 

Bond Coeffs 

1 1948557.158515 0.025000 
2 1948557.158515 0.025000 
3 1948557.158515 0.028025 
4 1948557.158515 0.021150 
5 1948557.158515 0.029150 
6 1948557.158515 0.018219 
7 1948557.158515 0.025000 
8 1948557.158515 0.025000 
9 1948557.158515 0.016742 
10 1948557.158515 0.020239 
11 1948557.158515 0.026771 
12 1948557.158515 0.025000 
13 1948557.158515 0.025000 
14 1948557.158515 0.028025 
15 1948557.158515 0.021150 
16 1948557.158515 0.029150 
17 1948557.158515 0.018219 
18 1948557.158515 0.025000 
19 1948557.158515 0.025000 
20 1948557.158515 0.016310 
21 1948557.158515 0.020239 
22 1948557.158515 0.025568 
23 1948557.158515 0.025000 
24 1948557.158515 0.025000 
25 1948557.158515 0.027132 
26 1948557.158515 0.025903 
27 1948557.158515 0.025394 
28 1948557.158515 0.021219 
29 1948557.158515 0.025000 
30 1948557.158515 0.025000 
31 1948557.158515 0.022218 
32 1948557.158515 0.029203 
33 1948557.158515 0.024893 
34 1948557.158515 0.024352 
35 1948557.158515 0.025000 
36 1948557.158515 0.025000 
37 1948557.158515 0.027132 
38 1948557.158515 0.025903 
39 1948557.158515 0.025394 
40 1948557.158515 0.021219 
41 1948557.158515 0.025000 
42 1948557.158515 0.025000 
43 1948557.158515 0.022218 
44 1948557.158515 0.029203 
45 1948557.158515 0.024893 
46 1948557.158515 0.024352 
47 1948557.158515 0.025000 
48 1948557.158515 0.025000 
49 1948557.158515 0.027349 
50 1948557.158515 0.026324 
51 1948557.158515 0.030072 
52 1948557.158515 0.026952 
53 1948557.158515 0.025000 
54 1948557.158515 0.025000 
55 1948557.158515 0.031109 
56 1948557.158515 0.023802 
57 1948557.158515 0.025570 
58 1948557.158515 0.027584 
59 1948557.158515 0.032198 
60 1948557.158515 0.025000 
61 1948557.158515 0.025000 
62 1948557.158515 0.027349 
63 1948557.158515 0.026324 
64 1948557.158515 0.030072 
65 1948557.158515 0.026952 
66 1948557.158515 0.025000 
67 1948557.158515 0.025000 
68 1948557.158515 0.031109 
69 1948557.158515 0.023802 
70 1948557.158515 0.025570 
71 1948557.158515 0.027584 
72 1948557.158515 0.032198 
73 1948557.158515 0.025000 
74 1948557.158515 0.025000 
75 1948557.158515 0.030362 
76 1948557.158515 0.027231 
77 1948557.158515 0.032051 
78 1948557.158515 0.031185 
79 1948557.158515 0.027771 
80 1948557.158515 0.025000 
81 1948557.158515 0.025000 
82 1948557.158515 0.027411 
83 1948557.158515 0.027653 
84 1948557.158515 0.026917 
85 1948557.158515 0.029395 
86 1948557.158515 0.025000 
87 1948557.158515 0.025000 
88 1948557.158515 0.030362 
89 1948557.158515 0.027231 
90 1948557.158515 0.032051 
91 1948557.158515 0.031185 
92 1948557.158515 0.027771 
93 1948557.158515 0.025000 
94 1948557.158515 0.025000 
95 1948557.158515 0.027411 
96 1948557.158515 0.027653 
97 1948557.158515 0.026917 
98 1948557.158515 0.029395 
99 1948557.158515 0.025000 
100 1948557.158515 0.025000 
101 1948557.158515 0.027132 
102 1948557.158515 0.025903 
103 1948557.158515 0.025394 
104 1948557.158515 0.021219 
105 1948557.158515 0.025000 
106 1948557.158515 0.025000 
107 1948557.158515 0.022218 
108 1948557.158515 0.029203 
109 1948557.158515 0.024893 
110 1948557.158515 0.024352 
111 1948557.158515 0.025000 
112 1948557.158515 0.025000 
113 1948557.158515 0.027132 
114 1948557.158515 0.025903 
115 1948557.158515 0.025394 
116 1948557.158515 0.021219 
117 1948557.158515 0.025000 
118 1948557.158515 0.025000 
119 1948557.158515 0.022218 
120 1948557.158515 0.029203 
121 1948557.158515 0.024893 
122 1948557.158515 0.024352 
123 1948557.158515 0.025000 
124 1948557.158515 0.025000 
125 1948557.158515 0.027349 
126 1948557.158515 0.026324 
127 1948557.158515 0.030072 
128 1948557.158515 0.026952 
129 1948557.158515 0.025000 
130 1948557.158515 0.025000 
131 1948557.158515 0.031109 
132 1948557.158515 0.023802 
133 1948557.158515 0.025570 
134 1948557.158515 0.027584 
135 1948557.158515 0.032198 
136 1948557.158515 0.025000 
137 1948557.158515 0.025000 
138 1948557.158515 0.027349 
139 1948557.158515 0.026324 
140 1948557.158515 0.030072 
141 1948557.158515 0.026952 
142 1948557.158515 0.025000 
143 1948557.158515 0.025000 
144 1948557.158515 0.031109 
145 1948557.158515 0.023802 
146 1948557.158515 0.025570 
147 1948557.158515 0.027584 
148 1948557.158515 0.032198 
149 1948557.158515 0.025000 
150 1948557.158515 0.025000 
151 1948557.158515 0.030362 
152 1948557.158515 0.027231 
153 1948557.158515 0.032051 
154 1948557.158515 0.031185 
155 1948557.158515 0.027771 
156 1948557.158515 0.025000 
157 1948557.158515 0.025000 
158 1948557.158515 0.027411 
159 1948557.158515 0.027653 
160 1948557.158515 0.026917 
161 1948557.158515 0.029395 
162 1948557.158515 0.025000 
163 1948557.158515 0.025000 
164 1948557.158515 0.030362 
165 1948557.158515 0.027231 
166 1948557.158515 0.032051 
167 1948557.158515 0.031185 
168 1948557.158515 0.027771 
169 1948557.158515 0.025000 
170 1948557.158515 0.025000 
171 1948557.158515 0.027411 
172 1948557.158515 0.027653 
173 1948557.158515 0.026917 
174 1948557.158515 0.029395 
175 1948557.158515 0.025000 
176 1948557.158515 0.025000 
177 1948557.158515 0.029710 
178 1948557.158515 0.028183 
179 1948557.158515 0.023263 
180 1948557.158515 0.025829 
181 1948557.158515 0.025613 
182 1948557.158515 0.025000 
183 1948557.158515 0.025000 
184 1948557.158515 0.025390 
185 1948557.158515 0.025475 
186 1948557.158515 0.025392 
187 1948557.158515 0.026669 
188 1948557.158515 0.025000 
189 1948557.158515 0.025000 
190 1948557.158515 0.028915 
191 1948557.158515 0.025298 
192 1948557.158515 0.024025 
193 1948557.158515 0.026240 
194 1948557.158515 0.025000 
195 1948557.158515 0.025000 
196 1948557.158515 0.027039 
197 1948557.158515 0.028003 
198 1948557.158515 0.022252 
199 1948557.158515 0.024864 
200 1948557.158515 0.025000 
201 1948557.158515 0.025000 
202 1948557.158515 0.028630 
203 1948557.158515 0.031348 
204 1948557.158515 0.028344 
205 1948557.158515 0.027292 
206 1948557.158515 0.018596 
207 1948557.158515 0.025000 
208 1948557.158515 0.025000 
209 1948557.158515 0.021428 
210 1948557.158515 0.032108 
211 1948557.158515 0.022473 
212 1948557.158515 0.030519 
213 1948557.158515 0.025000 
214 1948557.158515 0.025000 
215 1948557.158515 0.027511 
216 1948557.158515 0.024984 
217 1948557.158515 0.025344 
218 1948557.158515 0.025623 
219 1948557.158515 0.025000 
220 1948557.158515 0.025000 
221 1948557.158515 0.024947 
222 1948557.158515 0.023123 
223 1948557.158515 0.025210 
224 1948557.158515 0.024831 
225 1948557.158515 0.025000 
226 1948557.158515 0.025000 
227 1948557.158515 0.021965 
228 1948557.158515 0.027094 
229 1948557.158515 0.029762 
230 1948557.158515 0.022473 
231 1948557.158515 0.025000 
232 1948557.158515 0.025000 
233 1948557.158515 0.027459 
234 1948557.158515 0.027207 
235 1948557.158515 0.020257 
236 1948557.158515 0.025000 
237 1948557.158515 0.025000 
238 1948557.158515 0.023513 
239 1948557.158515 0.025687 
240 1948557.158515 0.024160 
241 1948557.158515 0.028135 
242 1948557.158515 0.025000 
243 1948557.158515 0.025000 
244 1948557.158515 0.031063 
245 1948557.158515 0.026355 
246 1948557.158515 0.024086 
247 1948557.158515 0.026048 
248 1948557.158515 0.025000 
249 1948557.158515 0.025000 
250 1948557.158515 0.028915 
251 1948557.158515 0.025298 
252 1948557.158515 0.024025 
253 1948557.158515 0.026240 
254 1948557.158515 0.025000 
255 1948557.158515 0.025000 
256 1948557.158515 0.027039 
257 1948557.158515 0.028003 
258 1948557.158515 0.022252 
259 1948557.158515 0.024864 
260 1948557.158515 0.025000 
261 1948557.158515 0.025000 
262 1948557.158515 0.029717 
263 1948557.158515 0.028183 
264 1948557.158515 0.023310 
265 1948557.158515 0.025869 
266 1948557.158515 0.025613 
267 1948557.158515 0.025000 
268 1948557.158515 0.025000 
269 1948557.158515 0.025390 
270 1948557.158515 0.025475 
271 1948557.158515 0.025392 
272 1948557.158515 0.026669 
273 1948557.158515 0.025000 
274 1948557.158515 0.025000 
275 1948557.158515 0.027511 
276 1948557.158515 0.024984 
277 1948557.158515 0.025344 
278 1948557.158515 0.025623 
279 1948557.158515 0.025000 
280 1948557.158515 0.025000 
281 1948557.158515 0.024947 
282 1948557.158515 0.023123 
283 1948557.158515 0.025210 
284 1948557.158515 0.024831 
285 1948557.158515 0.025000 
286 1948557.158515 0.025000 
287 1948557.158515 0.028630 
288 1948557.158515 0.031348 
289 1948557.158515 0.028344 
290 1948557.158515 0.027292 
291 1948557.158515 0.018596 
292 1948557.158515 0.025000 
293 1948557.158515 0.025000 
294 1948557.158515 0.021428 
295 1948557.158515 0.032108 
296 1948557.158515 0.022473 
297 1948557.158515 0.030519 
298 1948557.158515 0.025000 
299 1948557.158515 0.025000 
300 1948557.158515 0.023513 
301 1948557.158515 0.025687 
302 1948557.158515 0.024160 
303 1948557.158515 0.028135 
304 1948557.158515 0.025000 
305 1948557.158515 0.025000 
306 1948557.158515 0.031063 
307 1948557.158515 0.026355 
308 1948557.158515 0.024086 
309 1948557.158515 0.026048 
310 1948557.158515 0.025000 
311 1948557.158515 0.025000 
312 1948557.158515 0.021965 
313 1948557.158515 0.027094 
314 1948557.158515 0.029762 
315 1948557.158515 0.022473 
316 1948557.158515 0.025000 
317 1948557.158515 0.025000 
318 1948557.158515 0.027459 
319 1948557.158515 0.027207 
320 1948557.158515 0.020257 
321 1948557.158515 0.025000 
322 1948557.158515 0.025000 
323 1948557.158515 0.025944 
324 1948557.158515 0.027533 
325 1948557.158515 0.025756 
326 1948557.158515 0.028179 
327 1948557.158515 0.025000 
328 1948557.158515 0.025000 
329 1948557.158515 0.032080 
330 1948557.158515 0.022591 
331 1948557.158515 0.030505 
332 1948557.158515 0.023311 
333 1948557.158515 0.025000 
334 1948557.158515 0.025000 
335 1948557.158515 0.026278 
336 1948557.158515 0.027658 
337 1948557.158515 0.025423 
338 1948557.158515 0.029240 
339 1948557.158515 0.028775 
340 1948557.158515 0.025000 
341 1948557.158515 0.025000 
342 1948557.158515 0.027869 
343 1948557.158515 0.027920 
344 1948557.158515 0.025548 
345 1948557.158515 0.028331 
346 1948557.158515 0.025000 
347 1948557.158515 0.025000 
348 1948557.158515 0.027390 
349 1948557.158515 0.024499 
350 1948557.158515 0.024889 
351 1948557.158515 0.022691 
352 1948557.158515 0.025000 
353 1948557.158515 0.025000 
354 1948557.158515 0.024546 
355 1948557.158515 0.023345 
356 1948557.158515 0.024083 
357 1948557.158515 0.026324 
358 1948557.158515 0.025000 
359 1948557.158515 0.025000 
360 1948557.158515 0.023454 
361 1948557.158515 0.025693 
362 1948557.158515 0.024160 
363 1948557.158515 0.028135 
364 1948557.158515 0.025000 
365 1948557.158515 0.025000 
366 1948557.158515 0.024947 
367 1948557.158515 0.023123 
368 1948557.158515 0.025210 
369 1948557.158515 0.024831 
370 1948557.158515 0.025000 
371 1948557.158515 0.025000 
372 1948557.158515 0.027080 
373 1948557.158515 0.029744 
374 1948557.158515 0.022591 
375 1948557.158515 0.023051 
376 1948557.158515 0.025000 
377 1948557.158515 0.025000 
378 1948557.158515 0.023759 
379 1948557.158515 0.029835 
380 1948557.158515 0.023962 
381 1948557.158515 0.028051 
382 1948557.158515 0.025000 
383 1948557.158515 0.025000 
384 1948557.158515 0.029779 
385 1948557.158515 0.023571 
386 1948557.158515 0.027444 
387 1948557.158515 0.026076 
388 1948557.158515 0.025000 
389 1948557.158515 0.025000 
390 1948557.158515 0.026278 
391 1948557.158515 0.032591 
392 1948557.158515 0.027204 
393 1948557.158515 0.027539 
394 1948557.158515 0.029637 
395 1948557.158515 0.025000 
396 1948557.158515 0.025000 
397 1948557.158515 0.026278 
398 1948557.158515 0.027658 
399 1948557.158515 0.025423 
400 1948557.158515 0.029240 
401 1948557.158515 0.028775 
402 1948557.158515 0.025000 
403 1948557.158515 0.025000 
404 1948557.158515 0.027869 
405 1948557.158515 0.027920 
406 1948557.158515 0.025548 
407 1948557.158515 0.028331 
408 1948557.158515 0.025000 
409 1948557.158515 0.025000 
410 1948557.158515 0.025944 
411 1948557.158515 0.027533 
412 1948557.158515 0.025756 
413 1948557.158515 0.028179 
414 1948557.158515 0.025000 
415 1948557.158515 0.025000 
416 1948557.158515 0.032080 
417 1948557.158515 0.022591 
418 1948557.158515 0.030505 
419 1948557.158515 0.023311 
420 1948557.158515 0.025000 
421 1948557.158515 0.025000 
422 1948557.158515 0.023454 
423 1948557.158515 0.025693 
424 1948557.158515 0.024160 
425 1948557.158515 0.028135 
426 1948557.158515 0.025000 
427 1948557.158515 0.025000 
428 1948557.158515 0.024947 
429 1948557.158515 0.023123 
430 1948557.158515 0.025210 
431 1948557.158515 0.024831 
432 1948557.158515 0.025000 
433 1948557.158515 0.025000 
434 1948557.158515 0.027390 
435 1948557.158515 0.024499 
436 1948557.158515 0.024889 
437 1948557.158515 0.022691 
438 1948557.158515 0.025000 
439 1948557.158515 0.025000 
440 1948557.158515 0.024546 
441 1948557.158515 0.023345 
442 1948557.158515 0.024083 
443 1948557.158515 0.026324 
444 1948557.158515 0.025000 
445 1948557.158515 0.025000 
446 1948557.158515 0.029779 
447 1948557.158515 0.023571 
448 1948557.158515 0.027444 
449 1948557.158515 0.026076 
450 1948557.158515 0.025000 
451 1948557.158515 0.025000 
452 1948557.158515 0.026278 
453 1948557.158515 0.032591 
454 1948557.158515 0.027204 
455 1948557.158515 0.027539 
456 1948557.158515 0.029637 
457 1948557.158515 0.025000 
458 1948557.158515 0.025000 
459 1948557.158515 0.027080 
460 1948557.158515 0.029744 
461 1948557.158515 0.022591 
462 1948557.158515 0.023051 
463 1948557.158515 0.025000 
464 1948557.158515 0.025000 
465 1948557.158515 0.023759 
466 1948557.158515 0.029835 
467 1948557.158515 0.023962 
468 1948557.158515 0.028051 
469 1948557.158515 0.021991 
470 1948557.158515 0.024066 
471 1948557.158515 0.021937 
472 1948557.158515 0.019573 
473 1948557.158515 0.024689 
474 1948557.158515 0.018221 
475 1948557.158515 0.025683 
476 1948557.158515 0.019604 
477 1948557.158515 0.020911 
478 1948557.158515 0.019657 
479 1948557.158515 0.023647 
480 1948557.158515 0.026627 
481 1948557.158515 0.021991 
482 1948557.158515 0.024074 
483 1948557.158515 0.021895 
484 1948557.158515 0.024689 
485 1948557.158515 0.018221 
486 1948557.158515 0.025382 
487 1948557.158515 0.024689 
488 1948557.158515 0.018221 
489 1948557.158515 0.025683 
490 1948557.158515 0.025912 
491 1948557.158515 0.031076 
492 1948557.158515 0.019701 
493 1948557.158515 0.022979 
494 1948557.158515 0.023691 
495 1948557.158515 0.025113 
496 1948557.158515 0.024689 
497 1948557.158515 0.018221 
498 1948557.158515 0.025382 
499 1948557.158515 0.026880 
500 1948557.158515 0.023355 
501 1948557.158515 0.020612 
502 1948557.158515 0.025579 
503 1948557.158515 0.025522 
504 1948557.158515 0.026000 
505 1948557.158515 0.021857 
506 1948557.158515 0.021558 
507 1948557.158515 0.021558 
508 1948557.158515 0.025522 
509 1948557.158515 0.026000 
510 1948557.158515 0.021857 
511 1948557.158515 0.025117 
512 1948557.158515 0.026940 
513 1948557.158515 0.023350 
514 1948557.158515 0.020644 
515 1948557.158515 0.026940 
516 1948557.158515 0.023350 
517 1948557.158515 0.020644 
518 1948557.158515 0.025117 
519 1948557.158515 0.025531 
520 1948557.158515 0.026000 
521 1948557.158515 0.021857 
522 1948557.158515 0.021558 
523 1948557.158515 0.021558 
524 1948557.158515 0.025522 
525 1948557.158515 0.026000 
526 1948557.158515 0.021857 
527 1948557.158515 0.025579 
528 1948557.158515 0.026880 
529 1948557.158515 0.023355 
530 1948557.158515 0.020612 
531 1948557.158515 0.024689 
532 1948557.158515 0.018221 
533 1948557.158515 0.025382 
534 1948557.158515 0.025113 
535 1948557.158515 0.019701 
536 1948557.158515 0.022979 
537 1948557.158515 0.023691 
538 1948557.158515 0.031076 
539 1948557.158515 0.025912 
540 1948557.158515 0.024689 
541 1948557.158515 0.018221 
542 1948557.158515 0.025683 
543 1948557.158515 0.024689 
544 1948557.158515 0.018221 
545 1948557.158515 0.025382 
546 1948557.158515 0.021991 
547 1948557.158515 0.024074 
548 1948557.158515 0.021895 
549 1948557.158515 0.019657 
550 1948557.158515 0.023647 
551 1948557.158515 0.026627 
552 1948557.158515 0.020911 
553 1948557.158515 0.019604 
554 1948557.158515 0.024689 
555 1948557.158515 0.018221 
556 1948557.158515 0.025683 
557 1948557.158515 0.019573 
558 1948557.158515 0.021991 
559 1948557.158515 0.024066 
560 1948557.158515 0.021937 
561 1948557.158515 0.024554 
562 1948557.158515 0.024940 
563 1948557.158515 0.023859 
564 1948557.158515 0.023897 
565 1948557.158515 0.028080 
566 1948557.158515 0.024554 
567 1948557.158515 0.023239 
568 1948557.158515 0.016919 
569 1948557.158515 0.021207 
570 1948557.158515 0.025641 
571 1948557.158515 0.024940 
572 1948557.158515 0.025000 
573 1948557.158515 0.030753 
574 1948557.158515 0.025914 
575 1948557.158515 0.025825 
576 1948557.158515 0.023063 
577 1948557.158515 0.023239 
578 1948557.158515 0.024151 
579 1948557.158515 0.026529 
580 1948557.158515 0.025000 
581 1948557.158515 0.022500 
582 1948557.158515 0.025982 
583 1948557.158515 0.032791 
584 1948557.158515 0.028236 
585 1948557.158515 0.026140 
586 1948557.158515 0.024151 
587 1948557.158515 0.024554 
588 1948557.158515 0.030823 
589 1948557.158515 0.024522 
590 1948557.158515 0.025631 
591 1948557.158515 0.022500 
592 1948557.158515 0.025000 
593 1948557.158515 0.021712 
594 1948557.158515 0.024554 
595 1948557.158515 0.021340 
596 1948557.158515 0.019690 
597 1948557.158515 0.022978 
598 1948557.158515 0.025000 
599 1948557.158515 0.022500 
600 1948557.158515 0.021834 
601 1948557.158515 0.021340 
602 1948557.158515 0.024800 
603 1948557.158515 0.020908 
604 1948557.158515 0.031591 
605 1948557.158515 0.023936 
606 1948557.158515 0.028999 
607 1948557.158515 0.022500 
608 1948557.158515 0.025000 
609 1948557.158515 0.030678 
610 1948557.158515 0.025809 
611 1948557.158515 0.026621 
612 1948557.158515 0.030158 
613 1948557.158515 0.024800 
614 1948557.158515 0.018681 
615 1948557.158515 0.029405 
616 1948557.158515 0.019929 
617 1948557.158515 0.022701 
618 1948557.158515 0.030882 
619 1948557.158515 0.031393 
620 1948557.158515 0.025000 
621 1948557.158515 0.022500 
622 1948557.158515 0.025977 
623 1948557.158515 0.032682 
624 1948557.158515 0.024139 
625 1948557.158515 0.027548 
626 1948557.158515 0.018681 
627 1948557.158515 0.025000 
628 1948557.158515 0.022072 
629 1948557.158515 0.022500 
630 1948557.158515 0.018681 
631 1948557.158515 0.020405 
632 1948557.158515 0.025000 
633 1948557.158515 0.024777 
634 1948557.158515 0.022071 
635 1948557.158515 0.018681 
636 1948557.158515 0.024800 
637 1948557.158515 0.025736 
638 1948557.158515 0.019954 
639 1948557.158515 0.025124 
640 1948557.158515 0.024262 
641 1948557.158515 0.024777 
642 1948557.158515 0.024800 
643 1948557.158515 0.031738 
644 1948557.158515 0.024023 
645 1948557.158515 0.027614 
646 1948557.158515 0.028204 
647 1948557.158515 0.025000 
648 1948557.158515 0.023915 
649 1948557.158515 0.031288 
650 1948557.158515 0.020067 
651 1948557.158515 0.026413 
652 1948557.158515 0.033592 
653 1948557.158515 0.025134 
654 1948557.158515 0.025000 
655 1948557.158515 0.022095 
656 1948557.158515 0.032731 
657 1948557.158515 0.023812 
658 1948557.158515 0.029000 
659 1948557.158515 0.026111 
660 1948557.158515 0.023265 
661 1948557.158515 0.023915 
662 1948557.158515 0.025000 
663 1948557.158515 0.022421 
664 1948557.158515 0.022095 
665 1948557.158515 0.024554 
666 1948557.158515 0.029016 
667 1948557.158515 0.023682 
668 1948557.158515 0.025063 
669 1948557.158515 0.025000 
670 1948557.158515 0.023915 
671 1948557.158515 0.021663 
672 1948557.158515 0.024554 
673 1948557.158515 0.023239 
674 1948557.158515 0.018400 
675 1948557.158515 0.025186 
676 1948557.158515 0.026982 
677 1948557.158515 0.023915 
678 1948557.158515 0.025000 
679 1948557.158515 0.033377 
680 1948557.158515 0.023918 
681 1948557.158515 0.030660 
682 1948557.158515 0.025334 
683 1948557.158515 0.031186 
684 1948557.158515 0.023239 
685 1948557.158515 0.024151 
686 1948557.158515 0.026923 
687 1948557.158515 0.025000 
688 1948557.158515 0.022095 
689 1948557.158515 0.031119 
690 1948557.158515 0.020114 
691 1948557.158515 0.026079 
692 1948557.158515 0.031561 
693 1948557.158515 0.023265 
694 1948557.158515 0.024151 
695 1948557.158515 0.024554 
696 1948557.158515 0.028899 
697 1948557.158515 0.023608 
698 1948557.158515 0.025612 
699 1948557.158515 0.022095 
700 1948557.158515 0.024554 
701 1948557.158515 0.031671 
702 1948557.158515 0.024743 
703 1948557.158515 0.026754 
704 1948557.158515 0.024554 
705 1948557.158515 0.021651 
706 1948557.158515 0.026572 
707 1948557.158515 0.027141 
708 1948557.158515 0.023080 
709 1948557.158515 0.020316 
710 1948557.158515 0.024554 
711 1948557.158515 0.023239 
712 1948557.158515 0.016919 
713 1948557.158515 0.021207 
714 1948557.158515 0.025641 
715 1948557.158515 0.021651 
716 1948557.158515 0.024554 
717 1948557.158515 0.027146 
718 1948557.158515 0.023238 
719 1948557.158515 0.026614 
720 1948557.158515 0.020319 
721 1948557.158515 0.023239 
722 1948557.158515 0.024151 
723 1948557.158515 0.026529 
724 1948557.158515 0.024554 
725 1948557.158515 0.024151 
726 1948557.158515 0.030823 
727 1948557.158515 0.024524 
728 1948557.158515 0.025631 
729 1948557.158515 0.024800 
730 1948557.158515 0.024777 
731 1948557.158515 0.031804 
732 1948557.158515 0.024040 
733 1948557.158515 0.026920 
734 1948557.158515 0.027962 
735 1948557.158515 0.024800 
736 1948557.158515 0.018681 
737 1948557.158515 0.020133 
738 1948557.158515 0.022187 
739 1948557.158515 0.017471 
740 1948557.158515 0.026612 
741 1948557.158515 0.024777 
742 1948557.158515 0.025000 
743 1948557.158515 0.022066 
744 1948557.158515 0.018681 
745 1948557.158515 0.022500 
746 1948557.158515 0.030118 
747 1948557.158515 0.025000 
748 1948557.158515 0.018681 
749 1948557.158515 0.026966 
750 1948557.158515 0.022500 
751 1948557.158515 0.025000 
752 1948557.158515 0.030645 
753 1948557.158515 0.025882 
754 1948557.158515 0.025845 
755 1948557.158515 0.022910 
756 1948557.158515 0.018681 
757 1948557.158515 0.024800 
758 1948557.158515 0.024437 
759 1948557.158515 0.022140 
760 1948557.158515 0.017555 
761 1948557.158515 0.027463 
762 1948557.158515 0.025000 
763 1948557.158515 0.022500 
764 1948557.158515 0.025982 
765 1948557.158515 0.032791 
766 1948557.158515 0.028236 
767 1948557.158515 0.026140 
768 1948557.158515 0.024800 
769 1948557.158515 0.021340 
770 1948557.158515 0.021129 
771 1948557.158515 0.031661 
772 1948557.158515 0.023919 
773 1948557.158515 0.029296 
774 1948557.158515 0.022500 
775 1948557.158515 0.025000 
776 1948557.158515 0.021712 
777 1948557.158515 0.021340 
778 1948557.158515 0.024554 
779 1948557.158515 0.022659 
780 1948557.158515 0.027272 
781 1948557.158515 0.020623 
782 1948557.158515 0.028748 
783 1948557.158515 0.025000 
784 1948557.158515 0.022500 
785 1948557.158515 0.021834 
786 1948557.158515 0.024554 
787 1948557.158515 0.024151 
788 1948557.158515 0.028899 
789 1948557.158515 0.023605 
790 1948557.158515 0.025612 
791 1948557.158515 0.022500 
792 1948557.158515 0.025000 
793 1948557.158515 0.030678 
794 1948557.158515 0.025809 
795 1948557.158515 0.026621 
796 1948557.158515 0.030158 
797 1948557.158515 0.024151 
798 1948557.158515 0.023239 
799 1948557.158515 0.026923 
800 1948557.158515 0.025000 
801 1948557.158515 0.024940 
802 1948557.158515 0.025544 
803 1948557.158515 0.031117 
804 1948557.158515 0.028355 
805 1948557.158515 0.031941 
806 1948557.158515 0.023239 
807 1948557.158515 0.024554 
808 1948557.158515 0.018400 
809 1948557.158515 0.025186 
810 1948557.158515 0.026982 
811 1948557.158515 0.024940 
812 1948557.158515 0.024554 
813 1948557.158515 0.023604 
814 1948557.158515 0.023649 
815 1948557.158515 0.028346 
816 1948557.158515 0.025000 
817 1948557.158515 0.024940 
818 1948557.158515 0.025105 
819 1948557.158515 0.030850 
820 1948557.158515 0.028137 
821 1948557.158515 0.031981 
822 1948557.158515 0.025000 
823 1948557.158515 0.022500 
824 1948557.158515 0.023350 
825 1948557.158515 0.026428 
826 1948557.158515 0.020718 
827 1948557.158515 0.030153 
828 1948557.158515 0.024940 
829 1948557.158515 0.024554 
830 1948557.158515 0.023585 
831 1948557.158515 0.028346 
832 1948557.158515 0.023640 
833 1948557.158515 0.022500 
834 1948557.158515 0.025000 
835 1948557.158515 0.021834 
836 1948557.158515 0.024554 
837 1948557.158515 0.023239 
838 1948557.158515 0.018400 
839 1948557.158515 0.025186 
840 1948557.158515 0.026982 
841 1948557.158515 0.025000 
842 1948557.158515 0.022500 
843 1948557.158515 0.021712 
844 1948557.158515 0.023239 
845 1948557.158515 0.024151 
846 1948557.158515 0.026923 
847 1948557.158515 0.022500 
848 1948557.158515 0.025000 
849 1948557.158515 0.024584 
850 1948557.158515 0.023313 
851 1948557.158515 0.028406 
852 1948557.158515 0.026140 
853 1948557.158515 0.024151 
854 1948557.158515 0.024554 
855 1948557.158515 0.028899 
856 1948557.158515 0.023608 
857 1948557.158515 0.025612 
858 1948557.158515 0.025000 
859 1948557.158515 0.022500 
860 1948557.158515 0.029748 
861 1948557.158515 0.025231 
862 1948557.158515 0.025480 
863 1948557.158515 0.022848 
864 1948557.158515 0.024554 
865 1948557.158515 0.021340 
866 1948557.158515 0.022659 
867 1948557.158515 0.027272 
868 1948557.158515 0.020623 
869 1948557.158515 0.028748 
870 1948557.158515 0.022500 
871 1948557.158515 0.018681 
872 1948557.158515 0.030117 
873 1948557.158515 0.021340 
874 1948557.158515 0.024800 
875 1948557.158515 0.021129 
876 1948557.158515 0.031661 
877 1948557.158515 0.023919 
878 1948557.158515 0.029296 
879 1948557.158515 0.018681 
880 1948557.158515 0.024800 
881 1948557.158515 0.020133 
882 1948557.158515 0.022187 
883 1948557.158515 0.017471 
884 1948557.158515 0.026612 
885 1948557.158515 0.024800 
886 1948557.158515 0.018681 
887 1948557.158515 0.024437 
888 1948557.158515 0.022140 
889 1948557.158515 0.017555 
890 1948557.158515 0.027463 
891 1948557.158515 0.024800 
892 1948557.158515 0.024777 
893 1948557.158515 0.031804 
894 1948557.158515 0.024040 
895 1948557.158515 0.026920 
896 1948557.158515 0.027962 
897 1948557.158515 0.018681 
898 1948557.158515 0.025000 
899 1948557.158515 0.026966 
900 1948557.158515 0.024777 
901 1948557.158515 0.025000 
902 1948557.158515 0.022066 
903 1948557.158515 0.025000 
904 1948557.158515 0.022500 
905 1948557.158515 0.024578 
906 1948557.158515 0.024139 
907 1948557.158515 0.023161 
908 1948557.158515 0.027652 
909 1948557.158515 0.025000 
910 1948557.158515 0.022500 
911 1948557.158515 0.023341 
912 1948557.158515 0.026428 
913 1948557.158515 0.020718 
914 1948557.158515 0.030153 
915 1948557.158515 0.022500 
916 1948557.158515 0.018681 
917 1948557.158515 0.020405 
918 1948557.158515 0.022500 
919 1948557.158515 0.025000 
920 1948557.158515 0.021834 
921 1948557.158515 0.018681 
922 1948557.158515 0.024800 
923 1948557.158515 0.025736 
924 1948557.158515 0.019954 
925 1948557.158515 0.025124 
926 1948557.158515 0.024262 
927 1948557.158515 0.025000 
928 1948557.158515 0.022500 
929 1948557.158515 0.021712 
930 1948557.158515 0.024800 
931 1948557.158515 0.024777 
932 1948557.158515 0.031738 
933 1948557.158515 0.024023 
934 1948557.158515 0.027614 
935 1948557.158515 0.028204 
936 1948557.158515 0.022500 
937 1948557.158515 0.025000 
938 1948557.158515 0.024584 
939 1948557.158515 0.023313 
940 1948557.158515 0.028406 
941 1948557.158515 0.026140 
942 1948557.158515 0.024777 
943 1948557.158515 0.025000 
944 1948557.158515 0.022071 
945 1948557.158515 0.025000 
946 1948557.158515 0.024940 
947 1948557.158515 0.023560 
948 1948557.158515 0.025805 
949 1948557.158515 0.026096 
950 1948557.158515 0.020947 
951 1948557.158515 0.025000 
952 1948557.158515 0.018681 
953 1948557.158515 0.022072 
954 1948557.158515 0.024940 
955 1948557.158515 0.024554 
956 1948557.158515 0.023859 
957 1948557.158515 0.023897 
958 1948557.158515 0.028080 
959 1948557.158515 0.018681 
960 1948557.158515 0.024800 
961 1948557.158515 0.029405 
962 1948557.158515 0.019929 
963 1948557.158515 0.022701 
964 1948557.158515 0.030882 
965 1948557.158515 0.031393 
966 1948557.158515 0.024554 
967 1948557.158515 0.023239 
968 1948557.158515 0.016919 
969 1948557.158515 0.021207 
970 1948557.158515 0.025641 
971 1948557.158515 0.024800 
972 1948557.158515 0.021340 
973 1948557.158515 0.020908 
974 1948557.158515 0.031591 
975 1948557.158515 0.023936 
976 1948557.158515 0.028999 
977 1948557.158515 0.023239 
978 1948557.158515 0.024151 
979 1948557.158515 0.026529 
980 1948557.158515 0.021340 
981 1948557.158515 0.024554 
982 1948557.158515 0.019690 
983 1948557.158515 0.022978 
984 1948557.158515 0.024151 
985 1948557.158515 0.024554 
986 1948557.158515 0.030823 
987 1948557.158515 0.024522 
988 1948557.158515 0.025631 
989 1948557.158515 0.024554 
990 1948557.158515 0.021651 
991 1948557.158515 0.026531 
992 1948557.158515 0.027144 
993 1948557.158515 0.023080 
994 1948557.158515 0.020315 
995 1948557.158515 0.024554 
996 1948557.158515 0.024151 
997 1948557.158515 0.028899 
998 1948557.158515 0.023605 
999 1948557.158515 0.025612 
1000 1948557.158515 0.021651 
1001 1948557.158515 0.024554 
1002 1948557.158515 0.027136 
1003 1948557.158515 0.023238 
1004 1948557.158515 0.026613 
1005 1948557.158515 0.020319 
1006 1948557.158515 0.024151 
1007 1948557.158515 0.023239 
1008 1948557.158515 0.026923 
1009 1948557.158515 0.024554 
1010 1948557.158515 0.024151 
1011 1948557.158515 0.030825 
1012 1948557.158515 0.024535 
1013 1948557.158515 0.025631 
1014 1948557.158515 0.023239 
1015 1948557.158515 0.024554 
1016 1948557.158515 0.018400 
1017 1948557.158515 0.025186 
1018 1948557.158515 0.026982 
1019 1948557.158515 0.024151 
1020 1948557.158515 0.023239 
1021 1948557.158515 0.026529 
1022 1948557.158515 0.024554 
1023 1948557.158515 0.022095 
1024 1948557.158515 0.029016 
1025 1948557.158515 0.023679 
1026 1948557.158515 0.025063 
1027 1948557.158515 0.023239 
1028 1948557.158515 0.024554 
1029 1948557.158515 0.016919 
1030 1948557.158515 0.021207 