LAMMPS DATA FILE 

13292 atoms 
35092 bonds 

5 atom types 
35092 bond types 

-3.649852 3.640148 xlo xhi 
-3.187499 3.186115 ylo yhi 
-0.100000 0.100000 zlo zhi 

Bond Coeffs 

1 1948557.158515 0.025000 
2 1948557.158515 0.025000 
3 1948557.158515 0.024964 
4 1948557.158515 0.025930 
5 1948557.158515 0.025686 
6 1948557.158515 0.025729 
7 1948557.158515 0.025000 
8 1948557.158515 0.025000 
9 1948557.158515 0.030657 
10 1948557.158515 0.024986 
11 1948557.158515 0.024994 
12 1948557.158515 0.028863 
13 1948557.158515 0.025000 
14 1948557.158515 0.025000 
15 1948557.158515 0.024964 
16 1948557.158515 0.026196 
17 1948557.158515 0.026210 
18 1948557.158515 0.025993 
19 1948557.158515 0.025000 
20 1948557.158515 0.025000 
21 1948557.158515 0.030480 
22 1948557.158515 0.025158 
23 1948557.158515 0.026244 
24 1948557.158515 0.025493 
25 1948557.158515 0.025000 
26 1948557.158515 0.025000 
27 1948557.158515 0.024449 
28 1948557.158515 0.024747 
29 1948557.158515 0.025592 
30 1948557.158515 0.024729 
31 1948557.158515 0.025000 
32 1948557.158515 0.025000 
33 1948557.158515 0.024783 
34 1948557.158515 0.026415 
35 1948557.158515 0.027719 
36 1948557.158515 0.029613 
37 1948557.158515 0.025000 
38 1948557.158515 0.025000 
39 1948557.158515 0.024449 
40 1948557.158515 0.024747 
41 1948557.158515 0.025592 
42 1948557.158515 0.024729 
43 1948557.158515 0.025000 
44 1948557.158515 0.025000 
45 1948557.158515 0.024783 
46 1948557.158515 0.026415 
47 1948557.158515 0.027891 
48 1948557.158515 0.029627 
49 1948557.158515 0.025000 
50 1948557.158515 0.025000 
51 1948557.158515 0.025000 
52 1948557.158515 0.026036 
53 1948557.158515 0.026028 
54 1948557.158515 0.025532 
55 1948557.158515 0.025000 
56 1948557.158515 0.025000 
57 1948557.158515 0.024840 
58 1948557.158515 0.024681 
59 1948557.158515 0.026603 
60 1948557.158515 0.025876 
61 1948557.158515 0.025000 
62 1948557.158515 0.025000 
63 1948557.158515 0.025000 
64 1948557.158515 0.026036 
65 1948557.158515 0.025991 
66 1948557.158515 0.025484 
67 1948557.158515 0.025000 
68 1948557.158515 0.025000 
69 1948557.158515 0.024840 
70 1948557.158515 0.024681 
71 1948557.158515 0.026609 
72 1948557.158515 0.025876 
73 1948557.158515 0.025000 
74 1948557.158515 0.025000 
75 1948557.158515 0.024840 
76 1948557.158515 0.024681 
77 1948557.158515 0.026609 
78 1948557.158515 0.025876 
79 1948557.158515 0.025000 
80 1948557.158515 0.025000 
81 1948557.158515 0.024945 
82 1948557.158515 0.024887 
83 1948557.158515 0.026425 
84 1948557.158515 0.025879 
85 1948557.158515 0.025000 
86 1948557.158515 0.025000 
87 1948557.158515 0.024840 
88 1948557.158515 0.025693 
89 1948557.158515 0.025890 
90 1948557.158515 0.024230 
91 1948557.158515 0.025000 
92 1948557.158515 0.025000 
93 1948557.158515 0.024942 
94 1948557.158515 0.026055 
95 1948557.158515 0.025926 
96 1948557.158515 0.025372 
97 1948557.158515 0.025000 
98 1948557.158515 0.025000 
99 1948557.158515 0.027437 
100 1948557.158515 0.026161 
101 1948557.158515 0.025849 
102 1948557.158515 0.024371 
103 1948557.158515 0.025000 
104 1948557.158515 0.025000 
105 1948557.158515 0.029497 
106 1948557.158515 0.026283 
107 1948557.158515 0.027894 
108 1948557.158515 0.029609 
109 1948557.158515 0.025000 
110 1948557.158515 0.025000 
111 1948557.158515 0.024449 
112 1948557.158515 0.024747 
113 1948557.158515 0.025592 
114 1948557.158515 0.024729 
115 1948557.158515 0.025000 
116 1948557.158515 0.025000 
117 1948557.158515 0.024783 
118 1948557.158515 0.023874 
119 1948557.158515 0.025454 
120 1948557.158515 0.025503 
121 1948557.158515 0.025000 
122 1948557.158515 0.025000 
123 1948557.158515 0.025000 
124 1948557.158515 0.026036 
125 1948557.158515 0.025991 
126 1948557.158515 0.025479 
127 1948557.158515 0.025000 
128 1948557.158515 0.025000 
129 1948557.158515 0.024840 
130 1948557.158515 0.025693 
131 1948557.158515 0.025890 
132 1948557.158515 0.024230 
133 1948557.158515 0.025000 
134 1948557.158515 0.025000 
135 1948557.158515 0.024945 
136 1948557.158515 0.024887 
137 1948557.158515 0.026417 
138 1948557.158515 0.025879 
139 1948557.158515 0.025000 
140 1948557.158515 0.025000 
141 1948557.158515 0.024840 
142 1948557.158515 0.024681 
143 1948557.158515 0.026609 
144 1948557.158515 0.025876 
145 1948557.158515 0.025000 
146 1948557.158515 0.025000 
147 1948557.158515 0.024840 
148 1948557.158515 0.024681 
149 1948557.158515 0.026609 
150 1948557.158515 0.025876 
151 1948557.158515 0.025000 
152 1948557.158515 0.025000 
153 1948557.158515 0.024945 
154 1948557.158515 0.024887 
155 1948557.158515 0.026417 
156 1948557.158515 0.025879 
157 1948557.158515 0.025000 
158 1948557.158515 0.025000 
159 1948557.158515 0.024840 
160 1948557.158515 0.025693 
161 1948557.158515 0.025924 
162 1948557.158515 0.024236 
163 1948557.158515 0.025000 
164 1948557.158515 0.025000 
165 1948557.158515 0.024942 
166 1948557.158515 0.026055 
167 1948557.158515 0.025966 
168 1948557.158515 0.025417 
169 1948557.158515 0.025000 
170 1948557.158515 0.025000 
171 1948557.158515 0.024852 
172 1948557.158515 0.024643 
173 1948557.158515 0.025280 
174 1948557.158515 0.024351 
175 1948557.158515 0.025000 
176 1948557.158515 0.025000 
177 1948557.158515 0.024937 
178 1948557.158515 0.024811 
179 1948557.158515 0.025872 
180 1948557.158515 0.023938 
181 1948557.158515 0.025000 
182 1948557.158515 0.025000 
183 1948557.158515 0.024937 
184 1948557.158515 0.024811 
185 1948557.158515 0.025878 
186 1948557.158515 0.024211 
187 1948557.158515 0.025000 
188 1948557.158515 0.025000 
189 1948557.158515 0.024790 
190 1948557.158515 0.025527 
191 1948557.158515 0.026668 
192 1948557.158515 0.024111 
193 1948557.158515 0.025000 
194 1948557.158515 0.025000 
195 1948557.158515 0.024995 
196 1948557.158515 0.024678 
197 1948557.158515 0.026171 
198 1948557.158515 0.025873 
199 1948557.158515 0.025000 
200 1948557.158515 0.025000 
201 1948557.158515 0.024881 
202 1948557.158515 0.024941 
203 1948557.158515 0.025860 
204 1948557.158515 0.021681 
205 1948557.158515 0.025000 
206 1948557.158515 0.025000 
207 1948557.158515 0.029499 
208 1948557.158515 0.024273 
209 1948557.158515 0.026454 
210 1948557.158515 0.025879 
211 1948557.158515 0.025000 
212 1948557.158515 0.025000 
213 1948557.158515 0.024755 
214 1948557.158515 0.023795 
215 1948557.158515 0.025295 
216 1948557.158515 0.022670 
217 1948557.158515 0.025000 
218 1948557.158515 0.025000 
219 1948557.158515 0.024881 
220 1948557.158515 0.024941 
221 1948557.158515 0.025860 
222 1948557.158515 0.021681 
223 1948557.158515 0.025000 
224 1948557.158515 0.025000 
225 1948557.158515 0.024872 
226 1948557.158515 0.024672 
227 1948557.158515 0.026174 
228 1948557.158515 0.025873 
229 1948557.158515 0.025000 
230 1948557.158515 0.025000 
231 1948557.158515 0.024717 
232 1948557.158515 0.026720 
233 1948557.158515 0.024671 
234 1948557.158515 0.020696 
235 1948557.158515 0.025000 
236 1948557.158515 0.025000 
237 1948557.158515 0.025578 
238 1948557.158515 0.025516 
239 1948557.158515 0.025792 
240 1948557.158515 0.025208 
241 1948557.158515 0.025000 
242 1948557.158515 0.025000 
243 1948557.158515 0.027569 
244 1948557.158515 0.024937 
245 1948557.158515 0.025917 
246 1948557.158515 0.026339 
247 1948557.158515 0.025000 
248 1948557.158515 0.025000 
249 1948557.158515 0.024790 
250 1948557.158515 0.025527 
251 1948557.158515 0.026847 
252 1948557.158515 0.024173 
253 1948557.158515 0.025000 
254 1948557.158515 0.025000 
255 1948557.158515 0.024852 
256 1948557.158515 0.024643 
257 1948557.158515 0.025280 
258 1948557.158515 0.024351 
259 1948557.158515 0.025000 
260 1948557.158515 0.025000 
261 1948557.158515 0.024937 
262 1948557.158515 0.024809 
263 1948557.158515 0.025865 
264 1948557.158515 0.023936 
265 1948557.158515 0.025000 
266 1948557.158515 0.025000 
267 1948557.158515 0.029499 
268 1948557.158515 0.024273 
269 1948557.158515 0.026454 
270 1948557.158515 0.025879 
271 1948557.158515 0.025000 
272 1948557.158515 0.025000 
273 1948557.158515 0.024755 
274 1948557.158515 0.023795 
275 1948557.158515 0.025295 
276 1948557.158515 0.022670 
277 1948557.158515 0.025000 
278 1948557.158515 0.025000 
279 1948557.158515 0.024995 
280 1948557.158515 0.024678 
281 1948557.158515 0.026149 
282 1948557.158515 0.025873 
283 1948557.158515 0.025000 
284 1948557.158515 0.025000 
285 1948557.158515 0.024881 
286 1948557.158515 0.024941 
287 1948557.158515 0.025860 
288 1948557.158515 0.021681 
289 1948557.158515 0.025000 
290 1948557.158515 0.025000 
291 1948557.158515 0.024733 
292 1948557.158515 0.028449 
293 1948557.158515 0.024973 
294 1948557.158515 0.026269 
295 1948557.158515 0.025000 
296 1948557.158515 0.025000 
297 1948557.158515 0.025578 
298 1948557.158515 0.025516 
299 1948557.158515 0.025792 
300 1948557.158515 0.024629 
301 1948557.158515 0.025000 
302 1948557.158515 0.025000 
303 1948557.158515 0.024881 
304 1948557.158515 0.024941 
305 1948557.158515 0.025860 
306 1948557.158515 0.021681 
307 1948557.158515 0.025000 
308 1948557.158515 0.025000 
309 1948557.158515 0.024872 
310 1948557.158515 0.024672 
311 1948557.158515 0.026174 
312 1948557.158515 0.025873 
313 1948557.158515 0.025000 
314 1948557.158515 0.025000 
315 1948557.158515 0.024808 
316 1948557.158515 0.024771 
317 1948557.158515 0.026784 
318 1948557.158515 0.025882 
319 1948557.158515 0.025000 
320 1948557.158515 0.025000 
321 1948557.158515 0.024941 
322 1948557.158515 0.024935 
323 1948557.158515 0.025528 
324 1948557.158515 0.017990 
325 1948557.158515 0.025000 
326 1948557.158515 0.025000 
327 1948557.158515 0.024913 
328 1948557.158515 0.025136 
329 1948557.158515 0.026482 
330 1948557.158515 0.025877 
331 1948557.158515 0.025000 
332 1948557.158515 0.025000 
333 1948557.158515 0.024734 
334 1948557.158515 0.025198 
335 1948557.158515 0.025966 
336 1948557.158515 0.025661 
337 1948557.158515 0.025000 
338 1948557.158515 0.025000 
339 1948557.158515 0.024895 
340 1948557.158515 0.024792 
341 1948557.158515 0.025794 
342 1948557.158515 0.025085 
343 1948557.158515 0.025000 
344 1948557.158515 0.025000 
345 1948557.158515 0.024866 
346 1948557.158515 0.024767 
347 1948557.158515 0.025792 
348 1948557.158515 0.023905 
349 1948557.158515 0.025000 
350 1948557.158515 0.025000 
351 1948557.158515 0.024732 
352 1948557.158515 0.028448 
353 1948557.158515 0.027229 
354 1948557.158515 0.020882 
355 1948557.158515 0.025000 
356 1948557.158515 0.025000 
357 1948557.158515 0.024731 
358 1948557.158515 0.022027 
359 1948557.158515 0.023749 
360 1948557.158515 0.016664 
361 1948557.158515 0.025000 
362 1948557.158515 0.025000 
363 1948557.158515 0.024941 
364 1948557.158515 0.024935 
365 1948557.158515 0.025528 
366 1948557.158515 0.017990 
367 1948557.158515 0.025000 
368 1948557.158515 0.025000 
369 1948557.158515 0.024795 
370 1948557.158515 0.024773 
371 1948557.158515 0.025932 
372 1948557.158515 0.023984 
373 1948557.158515 0.025000 
374 1948557.158515 0.025000 
375 1948557.158515 0.024734 
376 1948557.158515 0.025443 
377 1948557.158515 0.027791 
378 1948557.158515 0.027952 
379 1948557.158515 0.025000 
380 1948557.158515 0.025000 
381 1948557.158515 0.024913 
382 1948557.158515 0.025136 
383 1948557.158515 0.026625 
384 1948557.158515 0.025877 
385 1948557.158515 0.025000 
386 1948557.158515 0.025000 
387 1948557.158515 0.024913 
388 1948557.158515 0.025136 
389 1948557.158515 0.026482 
390 1948557.158515 0.025877 
391 1948557.158515 0.025000 
392 1948557.158515 0.025000 
393 1948557.158515 0.024734 
394 1948557.158515 0.025204 
395 1948557.158515 0.025922 
396 1948557.158515 0.025663 
397 1948557.158515 0.025000 
398 1948557.158515 0.025000 
399 1948557.158515 0.024788 
400 1948557.158515 0.024772 
401 1948557.158515 0.025934 
402 1948557.158515 0.023973 
403 1948557.158515 0.025000 
404 1948557.158515 0.025000 
405 1948557.158515 0.024941 
406 1948557.158515 0.024935 
407 1948557.158515 0.025528 
408 1948557.158515 0.017990 
409 1948557.158515 0.025000 
410 1948557.158515 0.025000 
411 1948557.158515 0.024734 
412 1948557.158515 0.028449 
413 1948557.158515 0.027225 
414 1948557.158515 0.020850 
415 1948557.158515 0.025000 
416 1948557.158515 0.025000 
417 1948557.158515 0.024755 
418 1948557.158515 0.023797 
419 1948557.158515 0.025301 
420 1948557.158515 0.022603 
421 1948557.158515 0.025000 
422 1948557.158515 0.025000 
423 1948557.158515 0.024899 
424 1948557.158515 0.024792 
425 1948557.158515 0.025794 
426 1948557.158515 0.025085 
427 1948557.158515 0.025000 
428 1948557.158515 0.025000 
429 1948557.158515 0.024862 
430 1948557.158515 0.024768 
431 1948557.158515 0.025793 
432 1948557.158515 0.023905 
433 1948557.158515 0.025000 
434 1948557.158515 0.025000 
435 1948557.158515 0.024750 
436 1948557.158515 0.025444 
437 1948557.158515 0.027791 
438 1948557.158515 0.027952 
439 1948557.158515 0.025000 
440 1948557.158515 0.025000 
441 1948557.158515 0.024913 
442 1948557.158515 0.025136 
443 1948557.158515 0.026625 
444 1948557.158515 0.025877 
445 1948557.158515 0.025000 
446 1948557.158515 0.025000 
447 1948557.158515 0.024941 
448 1948557.158515 0.024935 
449 1948557.158515 0.025528 
450 1948557.158515 0.017990 
451 1948557.158515 0.025000 
452 1948557.158515 0.025000 
453 1948557.158515 0.024795 
454 1948557.158515 0.024773 
455 1948557.158515 0.025932 
456 1948557.158515 0.023969 
457 1948557.158515 0.024510 
458 1948557.158515 0.024292 
459 1948557.158515 0.023557 
460 1948557.158515 0.024965 
461 1948557.158515 0.026265 
462 1948557.158515 0.022354 
463 1948557.158515 0.025877 
464 1948557.158515 0.024965 
465 1948557.158515 0.023111 
466 1948557.158515 0.024437 
467 1948557.158515 0.024861 
468 1948557.158515 0.023035 
469 1948557.158515 0.026268 
470 1948557.158515 0.023294 
471 1948557.158515 0.025455 
472 1948557.158515 0.026265 
473 1948557.158515 0.022354 
474 1948557.158515 0.025877 
475 1948557.158515 0.026498 
476 1948557.158515 0.022360 
477 1948557.158515 0.025800 
478 1948557.158515 0.023114 
479 1948557.158515 0.022581 
480 1948557.158515 0.024437 
481 1948557.158515 0.024865 
482 1948557.158515 0.023035 
483 1948557.158515 0.019523 
484 1948557.158515 0.026498 
485 1948557.158515 0.022360 
486 1948557.158515 0.025800 
487 1948557.158515 0.022150 
488 1948557.158515 0.019874 
489 1948557.158515 0.020350 
490 1948557.158515 0.018303 
491 1948557.158515 0.023090 
492 1948557.158515 0.023865 
493 1948557.158515 0.020107 
494 1948557.158515 0.021443 
495 1948557.158515 0.015027 
496 1948557.158515 0.020814 
497 1948557.158515 0.020814 
498 1948557.158515 0.022859 
499 1948557.158515 0.020105 
500 1948557.158515 0.021358 
501 1948557.158515 0.015061 
502 1948557.158515 0.019523 
503 1948557.158515 0.021919 
504 1948557.158515 0.019870 
505 1948557.158515 0.020315 
506 1948557.158515 0.017325 
507 1948557.158515 0.021853 
508 1948557.158515 0.019883 
509 1948557.158515 0.020334 
510 1948557.158515 0.017285 
511 1948557.158515 0.019523 
512 1948557.158515 0.022859 
513 1948557.158515 0.020105 
514 1948557.158515 0.021358 
515 1948557.158515 0.015061 
516 1948557.158515 0.020766 
517 1948557.158515 0.020814 
518 1948557.158515 0.023270 
519 1948557.158515 0.020383 
520 1948557.158515 0.021443 
521 1948557.158515 0.021249 
522 1948557.158515 0.023090 
523 1948557.158515 0.022321 
524 1948557.158515 0.019867 
525 1948557.158515 0.020310 
526 1948557.158515 0.018278 
527 1948557.158515 0.026498 
528 1948557.158515 0.022360 
529 1948557.158515 0.025800 
530 1948557.158515 0.019523 
531 1948557.158515 0.024437 
532 1948557.158515 0.024865 
533 1948557.158515 0.023035 
534 1948557.158515 0.022580 
535 1948557.158515 0.023114 
536 1948557.158515 0.026498 
537 1948557.158515 0.022360 
538 1948557.158515 0.025800 
539 1948557.158515 0.026265 
540 1948557.158515 0.022354 
541 1948557.158515 0.025877 
542 1948557.158515 0.026268 
543 1948557.158515 0.023294 
544 1948557.158515 0.025455 
545 1948557.158515 0.024437 
546 1948557.158515 0.024861 
547 1948557.158515 0.023035 
548 1948557.158515 0.023111 
549 1948557.158515 0.025857 
550 1948557.158515 0.026265 
551 1948557.158515 0.022354 
552 1948557.158515 0.025877 
553 1948557.158515 0.024965 
554 1948557.158515 0.024510 
555 1948557.158515 0.024292 
556 1948557.158515 0.023557 
557 1948557.158515 0.024554 
558 1948557.158515 0.024940 
559 1948557.158515 0.025026 
560 1948557.158515 0.023724 
561 1948557.158515 0.017477 
562 1948557.158515 0.024554 
563 1948557.158515 0.023239 
564 1948557.158515 0.026037 
565 1948557.158515 0.023669 
566 1948557.158515 0.028560 
567 1948557.158515 0.024940 
568 1948557.158515 0.025000 
569 1948557.158515 0.024978 
570 1948557.158515 0.025319 
571 1948557.158515 0.025937 
572 1948557.158515 0.024625 
573 1948557.158515 0.023239 
574 1948557.158515 0.024151 
575 1948557.158515 0.024010 
576 1948557.158515 0.025000 
577 1948557.158515 0.022500 
578 1948557.158515 0.024803 
579 1948557.158515 0.022711 
580 1948557.158515 0.022709 
581 1948557.158515 0.026486 
582 1948557.158515 0.024151 
583 1948557.158515 0.024554 
584 1948557.158515 0.026819 
585 1948557.158515 0.023063 
586 1948557.158515 0.025893 
587 1948557.158515 0.022500 
588 1948557.158515 0.025000 
589 1948557.158515 0.022609 
590 1948557.158515 0.024554 
591 1948557.158515 0.021340 
592 1948557.158515 0.021638 
593 1948557.158515 0.018261 
594 1948557.158515 0.024920 
595 1948557.158515 0.025000 
596 1948557.158515 0.022500 
597 1948557.158515 0.023288 
598 1948557.158515 0.021340 
599 1948557.158515 0.024800 
600 1948557.158515 0.021710 
601 1948557.158515 0.021944 
602 1948557.158515 0.022247 
603 1948557.158515 0.022500 
604 1948557.158515 0.025000 
605 1948557.158515 0.024795 
606 1948557.158515 0.022711 
607 1948557.158515 0.022709 
608 1948557.158515 0.026408 
609 1948557.158515 0.024800 
610 1948557.158515 0.018681 
611 1948557.158515 0.023244 
612 1948557.158515 0.021423 
613 1948557.158515 0.018681 
614 1948557.158515 0.019330 
615 1948557.158515 0.025000 
616 1948557.158515 0.022500 
617 1948557.158515 0.024803 
618 1948557.158515 0.022711 
619 1948557.158515 0.022709 
620 1948557.158515 0.026485 
621 1948557.158515 0.018681 
622 1948557.158515 0.025000 
623 1948557.158515 0.020210 
624 1948557.158515 0.022500 
625 1948557.158515 0.018681 
626 1948557.158515 0.019456 
627 1948557.158515 0.025000 
628 1948557.158515 0.024777 
629 1948557.158515 0.025444 
630 1948557.158515 0.018681 
631 1948557.158515 0.024800 
632 1948557.158515 0.023244 
633 1948557.158515 0.021423 
634 1948557.158515 0.018795 
635 1948557.158515 0.018716 
636 1948557.158515 0.024777 
637 1948557.158515 0.024800 
638 1948557.158515 0.024798 
639 1948557.158515 0.024798 
640 1948557.158515 0.023951 
641 1948557.158515 0.025000 
642 1948557.158515 0.023915 
643 1948557.158515 0.024017 
644 1948557.158515 0.025122 
645 1948557.158515 0.026654 
646 1948557.158515 0.023724 
647 1948557.158515 0.025000 
648 1948557.158515 0.022095 
649 1948557.158515 0.023979 
650 1948557.158515 0.024034 
651 1948557.158515 0.022095 
652 1948557.158515 0.023178 
653 1948557.158515 0.023915 
654 1948557.158515 0.025000 
655 1948557.158515 0.024593 
656 1948557.158515 0.022095 
657 1948557.158515 0.024554 
658 1948557.158515 0.023638 
659 1948557.158515 0.020728 
660 1948557.158515 0.022720 
661 1948557.158515 0.025000 
662 1948557.158515 0.023915 
663 1948557.158515 0.024599 
664 1948557.158515 0.024554 
665 1948557.158515 0.023239 
666 1948557.158515 0.023979 
667 1948557.158515 0.027199 
668 1948557.158515 0.026740 
669 1948557.158515 0.023915 
670 1948557.158515 0.025000 
671 1948557.158515 0.024571 
672 1948557.158515 0.025116 
673 1948557.158515 0.026670 
674 1948557.158515 0.023718 
675 1948557.158515 0.023239 
676 1948557.158515 0.024151 
677 1948557.158515 0.024010 
678 1948557.158515 0.025000 
679 1948557.158515 0.022095 
680 1948557.158515 0.023919 
681 1948557.158515 0.024033 
682 1948557.158515 0.022095 
683 1948557.158515 0.023178 
684 1948557.158515 0.024151 
685 1948557.158515 0.024554 
686 1948557.158515 0.026817 
687 1948557.158515 0.023062 
688 1948557.158515 0.024444 
689 1948557.158515 0.022095 
690 1948557.158515 0.024554 
691 1948557.158515 0.023638 
692 1948557.158515 0.020728 
693 1948557.158515 0.022720 
694 1948557.158515 0.024554 
695 1948557.158515 0.021651 
696 1948557.158515 0.021928 
697 1948557.158515 0.022100 
698 1948557.158515 0.022973 
699 1948557.158515 0.024554 
700 1948557.158515 0.023239 
701 1948557.158515 0.027666 
702 1948557.158515 0.024610 
703 1948557.158515 0.026167 
704 1948557.158515 0.021651 
705 1948557.158515 0.024554 
706 1948557.158515 0.025881 
707 1948557.158515 0.023284 
708 1948557.158515 0.021682 
709 1948557.158515 0.023239 
710 1948557.158515 0.024151 
711 1948557.158515 0.023876 
712 1948557.158515 0.024554 
713 1948557.158515 0.024151 
714 1948557.158515 0.023614 
715 1948557.158515 0.024713 
716 1948557.158515 0.026763 
717 1948557.158515 0.024800 
718 1948557.158515 0.024777 
719 1948557.158515 0.024798 
720 1948557.158515 0.024798 
721 1948557.158515 0.023951 
722 1948557.158515 0.024800 
723 1948557.158515 0.018681 
724 1948557.158515 0.023244 
725 1948557.158515 0.021423 
726 1948557.158515 0.019142 
727 1948557.158515 0.019252 
728 1948557.158515 0.024777 
729 1948557.158515 0.025000 
730 1948557.158515 0.025443 
731 1948557.158515 0.018681 
732 1948557.158515 0.022500 
733 1948557.158515 0.019574 
734 1948557.158515 0.025000 
735 1948557.158515 0.018681 
736 1948557.158515 0.020297 
737 1948557.158515 0.022500 
738 1948557.158515 0.025000 
739 1948557.158515 0.024336 
740 1948557.158515 0.023631 
741 1948557.158515 0.021948 
742 1948557.158515 0.017295 
743 1948557.158515 0.018681 
744 1948557.158515 0.024800 
745 1948557.158515 0.023244 
746 1948557.158515 0.021423 
747 1948557.158515 0.018681 
748 1948557.158515 0.020331 
749 1948557.158515 0.025000 
750 1948557.158515 0.022500 
751 1948557.158515 0.024522 
752 1948557.158515 0.022711 
753 1948557.158515 0.023681 
754 1948557.158515 0.025309 
755 1948557.158515 0.024800 
756 1948557.158515 0.021340 
757 1948557.158515 0.021710 
758 1948557.158515 0.021944 
759 1948557.158515 0.022247 
760 1948557.158515 0.022500 
761 1948557.158515 0.025000 
762 1948557.158515 0.022609 
763 1948557.158515 0.021340 
764 1948557.158515 0.024554 
765 1948557.158515 0.021638 
766 1948557.158515 0.018231 
767 1948557.158515 0.024971 
768 1948557.158515 0.025000 
769 1948557.158515 0.022500 
770 1948557.158515 0.022841 
771 1948557.158515 0.024554 
772 1948557.158515 0.024151 
773 1948557.158515 0.024403 
774 1948557.158515 0.024454 
775 1948557.158515 0.026699 
776 1948557.158515 0.022500 
777 1948557.158515 0.025000 
778 1948557.158515 0.024179 
779 1948557.158515 0.024438 
780 1948557.158515 0.025330 
781 1948557.158515 0.023707 
782 1948557.158515 0.024151 
783 1948557.158515 0.023239 
784 1948557.158515 0.023876 
785 1948557.158515 0.025000 
786 1948557.158515 0.024940 
787 1948557.158515 0.024977 
788 1948557.158515 0.026447 
789 1948557.158515 0.027072 
790 1948557.158515 0.025336 
791 1948557.158515 0.023239 
792 1948557.158515 0.024554 
793 1948557.158515 0.027654 
794 1948557.158515 0.024610 
795 1948557.158515 0.026127 
796 1948557.158515 0.024940 
797 1948557.158515 0.024554 
798 1948557.158515 0.024795 
799 1948557.158515 0.025601 
800 1948557.158515 0.024971 
801 1948557.158515 0.025000 
802 1948557.158515 0.024940 
803 1948557.158515 0.024979 
804 1948557.158515 0.026016 
805 1948557.158515 0.025933 
806 1948557.158515 0.025182 
807 1948557.158515 0.025000 
808 1948557.158515 0.022500 
809 1948557.158515 0.024179 
810 1948557.158515 0.024438 
811 1948557.158515 0.025330 
812 1948557.158515 0.023707 
813 1948557.158515 0.024940 
814 1948557.158515 0.024554 
815 1948557.158515 0.024816 
816 1948557.158515 0.025593 
817 1948557.158515 0.024971 
818 1948557.158515 0.022500 
819 1948557.158515 0.025000 
820 1948557.158515 0.022841 
821 1948557.158515 0.024554 
822 1948557.158515 0.023239 
823 1948557.158515 0.023979 
824 1948557.158515 0.027198 
825 1948557.158515 0.026739 
826 1948557.158515 0.025000 
827 1948557.158515 0.022500 
828 1948557.158515 0.022604 
829 1948557.158515 0.023239 
830 1948557.158515 0.024151 
831 1948557.158515 0.024010 
832 1948557.158515 0.022500 
833 1948557.158515 0.025000 
834 1948557.158515 0.024179 
835 1948557.158515 0.023509 
836 1948557.158515 0.021497 
837 1948557.158515 0.016754 
838 1948557.158515 0.024151 
839 1948557.158515 0.024554 
840 1948557.158515 0.026817 
841 1948557.158515 0.023063 
842 1948557.158515 0.025892 
843 1948557.158515 0.025000 
844 1948557.158515 0.022500 
845 1948557.158515 0.024179 
846 1948557.158515 0.023651 
847 1948557.158515 0.021948 
848 1948557.158515 0.017299 
849 1948557.158515 0.024554 
850 1948557.158515 0.021340 
851 1948557.158515 0.021638 
852 1948557.158515 0.018231 
853 1948557.158515 0.024966 
854 1948557.158515 0.022500 
855 1948557.158515 0.018681 
856 1948557.158515 0.019574 
857 1948557.158515 0.021340 
858 1948557.158515 0.024800 
859 1948557.158515 0.021710 
860 1948557.158515 0.021944 
861 1948557.158515 0.022247 
862 1948557.158515 0.018681 
863 1948557.158515 0.024800 
864 1948557.158515 0.023244 
865 1948557.158515 0.021423 
866 1948557.158515 0.019142 
867 1948557.158515 0.019252 
868 1948557.158515 0.024800 
869 1948557.158515 0.018681 
870 1948557.158515 0.023244 
871 1948557.158515 0.021423 
872 1948557.158515 0.018681 
873 1948557.158515 0.020331 
874 1948557.158515 0.024800 
875 1948557.158515 0.024777 
876 1948557.158515 0.024798 
877 1948557.158515 0.024798 
878 1948557.158515 0.023951 
879 1948557.158515 0.018681 
880 1948557.158515 0.025000 
881 1948557.158515 0.020297 
882 1948557.158515 0.024777 
883 1948557.158515 0.025000 
884 1948557.158515 0.025443 
885 1948557.158515 0.025000 
886 1948557.158515 0.022500 
887 1948557.158515 0.024522 
888 1948557.158515 0.022711 
889 1948557.158515 0.023681 
890 1948557.158515 0.025309 
891 1948557.158515 0.025000 
892 1948557.158515 0.022500 
893 1948557.158515 0.024336 
894 1948557.158515 0.024416 
895 1948557.158515 0.025330 
896 1948557.158515 0.023707 
897 1948557.158515 0.022500 
898 1948557.158515 0.018681 
899 1948557.158515 0.019457 
900 1948557.158515 0.022500 
901 1948557.158515 0.025000 
902 1948557.158515 0.022841 
903 1948557.158515 0.018681 
904 1948557.158515 0.024800 
905 1948557.158515 0.023244 
906 1948557.158515 0.021423 
907 1948557.158515 0.018795 
908 1948557.158515 0.018716 
909 1948557.158515 0.025000 
910 1948557.158515 0.022500 
911 1948557.158515 0.022609 
912 1948557.158515 0.024800 
913 1948557.158515 0.024777 
914 1948557.158515 0.024798 
915 1948557.158515 0.024798 
916 1948557.158515 0.023951 
917 1948557.158515 0.022500 
918 1948557.158515 0.025000 
919 1948557.158515 0.024797 
920 1948557.158515 0.022711 
921 1948557.158515 0.022709 
922 1948557.158515 0.026437 
923 1948557.158515 0.024777 
924 1948557.158515 0.025000 
925 1948557.158515 0.024106 
926 1948557.158515 0.025000 
927 1948557.158515 0.024940 
928 1948557.158515 0.024945 
929 1948557.158515 0.024945 
930 1948557.158515 0.026595 
931 1948557.158515 0.027549 
932 1948557.158515 0.025000 
933 1948557.158515 0.018681 
934 1948557.158515 0.020210 
935 1948557.158515 0.024940 
936 1948557.158515 0.024554 
937 1948557.158515 0.024795 
938 1948557.158515 0.023724 
939 1948557.158515 0.017477 
940 1948557.158515 0.018681 
941 1948557.158515 0.024800 
942 1948557.158515 0.023244 
943 1948557.158515 0.021423 
944 1948557.158515 0.018681 
945 1948557.158515 0.019330 
946 1948557.158515 0.024554 
947 1948557.158515 0.023239 
948 1948557.158515 0.027667 
949 1948557.158515 0.024610 
950 1948557.158515 0.026114 
951 1948557.158515 0.024800 
952 1948557.158515 0.021340 
953 1948557.158515 0.021710 
954 1948557.158515 0.021944 
955 1948557.158515 0.022247 
956 1948557.158515 0.023239 
957 1948557.158515 0.024151 
958 1948557.158515 0.024010 
959 1948557.158515 0.021340 
960 1948557.158515 0.024554 
961 1948557.158515 0.021638 
962 1948557.158515 0.018261 
963 1948557.158515 0.024912 
964 1948557.158515 0.024151 
965 1948557.158515 0.024554 
966 1948557.158515 0.024753 
967 1948557.158515 0.025179 
968 1948557.158515 0.017488 
969 1948557.158515 0.024554 
970 1948557.158515 0.021651 
971 1948557.158515 0.021928 
972 1948557.158515 0.022100 
973 1948557.158515 0.022971 
974 1948557.158515 0.024554 
975 1948557.158515 0.024151 
976 1948557.158515 0.024403 
977 1948557.158515 0.024438 
978 1948557.158515 0.026699 
979 1948557.158515 0.021651 
980 1948557.158515 0.024554 
981 1948557.158515 0.025881 
982 1948557.158515 0.023284 
983 1948557.158515 0.021682 
984 1948557.158515 0.024151 
985 1948557.158515 0.023239 
986 1948557.158515 0.023876 
987 1948557.158515 0.024554 
988 1948557.158515 0.024151 
989 1948557.158515 0.024753 
990 1948557.158515 0.025179 
991 1948557.158515 0.017488 
992 1948557.158515 0.023239 
993 1948557.158515 0.024554 
994 1948557.158515 0.027654 
995 1948557.158515 0.024610 
996 1948557.158515 0.026127 
997 1948557.158515 0.024151 
998 1948557.158515 0.023239 
999 1948557.158515 0.024010 
1000 1948557.158515 0.024554 
1001 1948557.158515 0.022095 
1002 1948557.158515 0.023638 
1003 1948557.158515 0.020728 
1004 1948557.158515 0.022720 
1005 1948557.158515 0.023239 
1006 1948557.158515 0.024554 
1007 1948557.158515 0.027666 
1008 1948557.158515 0.024610 
1009 1948557.158515 0.026113 
1010 1948557.158515 0.022095 
1011 1948557.158515 0.025000 
1012 1948557.158515 0.023919 
1013 1948557.158515 0.023922 
1014 1948557.158515 0.022095 
1015 1948557.158515 0.023011 
1016 1948557.158515 0.024554 
1017 1948557.158515 0.022095 
1018 1948557.158515 0.023638 
1019 1948557.158515 0.020728 
1020 1948557.158515 0.022720 
1021 1948557.158515 0.025000 
1022 1948557.158515 0.023915 
1023 1948557.158515 0.024652 
1024 1948557.158515 0.025104 
1025 1948557.158515 0.026670 
1026 1948557.158515 0.023707 
1027 1948557.158515 0.022095 
1028 1948557.158515 0.025000 
1029 1948557.158515 0.023919 
1030 1948557.158515 0.024033 