LAMMPS DATA FILE 

2787 atoms 
6539 bonds 

5 atom types 
6539 bond types 

-1.803031 1.807673 xlo xhi 
-2.988516 1.754918 ylo yhi 
-0.100000 0.100000 zlo zhi 

Bond Coeffs 

1 4330127018.922193 0.013761 
2 4330127018.922193 0.013767 
3 4330127018.922193 0.013761 
4 4330127018.922193 0.013767 
5 4330127018.922193 0.020125 
6 4330127018.922193 0.016854 
7 4330127018.922193 0.014240 
8 4330127018.922193 0.019241 
9 4330127018.922193 0.014925 
10 4330127018.922193 0.022044 
11 4330127018.922193 0.014181 
12 4330127018.922193 0.025270 
13 4330127018.922193 0.019002 
14 4330127018.922193 0.021013 
15 4330127018.922193 0.019851 
16 4330127018.922193 0.017779 
17 4330127018.922193 0.021122 
18 4330127018.922193 0.015587 
19 4330127018.922193 0.021814 
20 4330127018.922193 0.016724 
21 4330127018.922193 0.022957 
22 4330127018.922193 0.019591 
23 4330127018.922193 0.020317 
24 4330127018.922193 0.019034 
25 4330127018.922193 0.014872 
26 4330127018.922193 0.022215 
27 4330127018.922193 0.018596 
28 4330127018.922193 0.022215 
29 4330127018.922193 0.018696 
30 4330127018.922193 0.018978 
31 4330127018.922193 0.015547 
32 4330127018.922193 0.023668 
33 4330127018.922193 0.025132 
34 4330127018.922193 0.019939 
35 4330127018.922193 0.017743 
36 4330127018.922193 0.017878 
37 4330127018.922193 0.020056 
38 4330127018.922193 0.013396 
39 4330127018.922193 0.026874 
40 4330127018.922193 0.016519 
41 4330127018.922193 0.019899 
42 4330127018.922193 0.014073 
43 4330127018.922193 0.019899 
44 4330127018.922193 0.014073 
45 4330127018.922193 0.026874 
46 4330127018.922193 0.016519 
47 4330127018.922193 0.020056 
48 4330127018.922193 0.013334 
49 4330127018.922193 0.017624 
50 4330127018.922193 0.017773 
51 4330127018.922193 0.023551 
52 4330127018.922193 0.024933 
53 4330127018.922193 0.020552 
54 4330127018.922193 0.019977 
55 4330127018.922193 0.015624 
56 4330127018.922193 0.022069 
57 4330127018.922193 0.017717 
58 4330127018.922193 0.022069 
59 4330127018.922193 0.017717 
60 4330127018.922193 0.019977 
61 4330127018.922193 0.015624 
62 4330127018.922193 0.023551 
63 4330127018.922193 0.020552 
64 4330127018.922193 0.021664 
65 4330127018.922193 0.022586 
66 4330127018.922193 0.016531 
67 4330127018.922193 0.020494 
68 4330127018.922193 0.015703 
69 4330127018.922193 0.020858 
70 4330127018.922193 0.015703 
71 4330127018.922193 0.023151 
72 4330127018.922193 0.021924 
73 4330127018.922193 0.021268 
74 4330127018.922193 0.016069 
75 4330127018.922193 0.021044 
76 4330127018.922193 0.016082 
77 4330127018.922193 0.022290 
78 4330127018.922193 0.023068 
79 4330127018.922193 0.020270 
80 4330127018.922193 0.015703 
81 4330127018.922193 0.020485 
82 4330127018.922193 0.015703 
83 4330127018.922193 0.023075 
84 4330127018.922193 0.018860 
85 4330127018.922193 0.019464 
86 4330127018.922193 0.014495 
87 4330127018.922193 0.019069 
88 4330127018.922193 0.017607 
89 4330127018.922193 0.025257 
90 4330127018.922193 0.017412 
91 4330127018.922193 0.023199 
92 4330127018.922193 0.023118 
93 4330127018.922193 0.025805 
94 4330127018.922193 0.018519 
95 4330127018.922193 0.019278 
96 4330127018.922193 0.025172 
97 4330127018.922193 0.017425 
98 4330127018.922193 0.024185 
99 4330127018.922193 0.017148 
100 4330127018.922193 0.017359 
101 4330127018.922193 0.015431 
102 4330127018.922193 0.021689 
103 4330127018.922193 0.024195 
104 4330127018.922193 0.020505 
105 4330127018.922193 0.018502 
106 4330127018.922193 0.025106 
107 4330127018.922193 0.018706 
108 4330127018.922193 0.017372 
109 4330127018.922193 0.019160 
110 4330127018.922193 0.014550 
111 4330127018.922193 0.018721 
112 4330127018.922193 0.018578 
113 4330127018.922193 0.017931 
114 4330127018.922193 0.014550 
115 4330127018.922193 0.019039 
116 4330127018.922193 0.017372 
117 4330127018.922193 0.025129 
118 4330127018.922193 0.017412 
119 4330127018.922193 0.023199 
120 4330127018.922193 0.024011 
121 4330127018.922193 0.025805 
122 4330127018.922193 0.018924 
123 4330127018.922193 0.025249 
124 4330127018.922193 0.018795 
125 4330127018.922193 0.017372 
126 4330127018.922193 0.017964 
127 4330127018.922193 0.014550 
128 4330127018.922193 0.018554 
129 4330127018.922193 0.020113 
130 4330127018.922193 0.019360 
131 4330127018.922193 0.014644 
132 4330127018.922193 0.018924 
133 4330127018.922193 0.017187 
134 4330127018.922193 0.024994 
135 4330127018.922193 0.017412 
136 4330127018.922193 0.023199 
137 4330127018.922193 0.024081 
138 4330127018.922193 0.025805 
139 4330127018.922193 0.018693 
140 4330127018.922193 0.024737 
141 4330127018.922193 0.018449 
142 4330127018.922193 0.016080 
143 4330127018.922193 0.017968 
144 4330127018.922193 0.014529 
145 4330127018.922193 0.018517 
146 4330127018.922193 0.016193 
147 4330127018.922193 0.026793 
148 4330127018.922193 0.024852 
149 4330127018.922193 0.020706 
150 4330127018.922193 0.018246 
151 4330127018.922193 0.015040 
152 4330127018.922193 0.022452 
153 4330127018.922193 0.020575 
154 4330127018.922193 0.014790 
155 4330127018.922193 0.026874 
156 4330127018.922193 0.016185 
157 4330127018.922193 0.019899 
158 4330127018.922193 0.014073 
159 4330127018.922193 0.019899 
160 4330127018.922193 0.014073 
161 4330127018.922193 0.026874 
162 4330127018.922193 0.016519 
163 4330127018.922193 0.022964 
164 4330127018.922193 0.020056 
165 4330127018.922193 0.018802 
166 4330127018.922193 0.020978 
167 4330127018.922193 0.015196 
168 4330127018.922193 0.021357 
169 4330127018.922193 0.014918 
170 4330127018.922193 0.019036 
171 4330127018.922193 0.017810 
172 4330127018.922193 0.025202 
173 4330127018.922193 0.017412 
174 4330127018.922193 0.023199 
175 4330127018.922193 0.024014 
176 4330127018.922193 0.025805 
177 4330127018.922193 0.018867 
178 4330127018.922193 0.025349 
179 4330127018.922193 0.018482 
180 4330127018.922193 0.017372 
181 4330127018.922193 0.019160 
182 4330127018.922193 0.014550 
183 4330127018.922193 0.018721 
184 4330127018.922193 0.018578 
185 4330127018.922193 0.017931 
186 4330127018.922193 0.014550 
187 4330127018.922193 0.019036 
188 4330127018.922193 0.017372 
189 4330127018.922193 0.025202 
190 4330127018.922193 0.017412 
191 4330127018.922193 0.023199 
192 4330127018.922193 0.024014 
193 4330127018.922193 0.025805 
194 4330127018.922193 0.018867 
195 4330127018.922193 0.025413 
196 4330127018.922193 0.018500 
197 4330127018.922193 0.017372 
198 4330127018.922193 0.018685 
199 4330127018.922193 0.014550 
200 4330127018.922193 0.018673 
201 4330127018.922193 0.015969 
202 4330127018.922193 0.022805 
203 4330127018.922193 0.020056 
204 4330127018.922193 0.020571 
205 4330127018.922193 0.023779 
206 4330127018.922193 0.016519 
207 4330127018.922193 0.020687 
208 4330127018.922193 0.025275 
209 4330127018.922193 0.018850 
210 4330127018.922193 0.015699 
211 4330127018.922193 0.018481 
212 4330127018.922193 0.014929 
213 4330127018.922193 0.019482 
214 4330127018.922193 0.014650 
215 4330127018.922193 0.021057 
216 4330127018.922193 0.019027 
217 4330127018.922193 0.014762 
218 4330127018.922193 0.019620 
219 4330127018.922193 0.013711 
220 4330127018.922193 0.026070 
221 4330127018.922193 0.016185 
222 4330127018.922193 0.022452 
223 4330127018.922193 0.020575 
224 4330127018.922193 0.014790 
225 4330127018.922193 0.018246 
226 4330127018.922193 0.015040 
227 4330127018.922193 0.024340 
228 4330127018.922193 0.024852 
229 4330127018.922193 0.024852 
230 4330127018.922193 0.018246 
231 4330127018.922193 0.015040 
232 4330127018.922193 0.022452 
233 4330127018.922193 0.020575 
234 4330127018.922193 0.014790 
235 4330127018.922193 0.026874 
236 4330127018.922193 0.016185 
237 4330127018.922193 0.019899 
238 4330127018.922193 0.014073 
239 4330127018.922193 0.019899 
240 4330127018.922193 0.014073 
241 4330127018.922193 0.026874 
242 4330127018.922193 0.016185 
243 4330127018.922193 0.022452 
244 4330127018.922193 0.020575 
245 4330127018.922193 0.014790 
246 4330127018.922193 0.018246 
247 4330127018.922193 0.015040 
248 4330127018.922193 0.024824 
249 4330127018.922193 0.024852 
250 4330127018.922193 0.022298 
251 4330127018.922193 0.023357 
252 4330127018.922193 0.017090 
253 4330127018.922193 0.020406 
254 4330127018.922193 0.015704 
255 4330127018.922193 0.020457 
256 4330127018.922193 0.015704 
257 4330127018.922193 0.023168 
258 4330127018.922193 0.022265 
259 4330127018.922193 0.021016 
260 4330127018.922193 0.015945 
261 4330127018.922193 0.020545 
262 4330127018.922193 0.015934 
263 4330127018.922193 0.022595 
264 4330127018.922193 0.016531 
265 4330127018.922193 0.024156 
266 4330127018.922193 0.020603 
267 4330127018.922193 0.021664 
268 4330127018.922193 0.020109 
269 4330127018.922193 0.015569 
270 4330127018.922193 0.022069 
271 4330127018.922193 0.017618 
272 4330127018.922193 0.022069 
273 4330127018.922193 0.018158 
274 4330127018.922193 0.019479 
275 4330127018.922193 0.014994 
276 4330127018.922193 0.022914 
277 4330127018.922193 0.019901 
278 4330127018.922193 0.014720 
279 4330127018.922193 0.018246 
280 4330127018.922193 0.013899 
281 4330127018.922193 0.028605 
282 4330127018.922193 0.024852 
283 4330127018.922193 0.024852 
284 4330127018.922193 0.018246 
285 4330127018.922193 0.013899 
286 4330127018.922193 0.022914 
287 4330127018.922193 0.019897 
288 4330127018.922193 0.014720 
289 4330127018.922193 0.019457 
290 4330127018.922193 0.014989 
291 4330127018.922193 0.021872 
292 4330127018.922193 0.018134 
293 4330127018.922193 0.021872 
294 4330127018.922193 0.017656 
295 4330127018.922193 0.019939 
296 4330127018.922193 0.015139 
297 4330127018.922193 0.024036 
298 4330127018.922193 0.020450 
299 4330127018.922193 0.018595 
300 4330127018.922193 0.021125 
301 4330127018.922193 0.015642 
302 4330127018.922193 0.020025 
303 4330127018.922193 0.014804 
304 4330127018.922193 0.018472 
305 4330127018.922193 0.017530 
306 4330127018.922193 0.018867 
307 4330127018.922193 0.025350 
308 4330127018.922193 0.023199 
309 4330127018.922193 0.024014 
310 4330127018.922193 0.025805 
311 4330127018.922193 0.017412 
312 4330127018.922193 0.017364 
313 4330127018.922193 0.021527 
314 4330127018.922193 0.022603 
315 4330127018.922193 0.015012 
316 4330127018.922193 0.020530 
317 4330127018.922193 0.014492 
318 4330127018.922193 0.022215 
319 4330127018.922193 0.017502 
320 4330127018.922193 0.022215 
321 4330127018.922193 0.017502 
322 4330127018.922193 0.018979 
323 4330127018.922193 0.020530 
324 4330127018.922193 0.019303 
325 4330127018.922193 0.014869 
326 4330127018.922193 0.018899 
327 4330127018.922193 0.016936 
328 4330127018.922193 0.020540 
329 4330127018.922193 0.026226 
330 4330127018.922193 0.023977 
331 4330127018.922193 0.016519 
332 4330127018.922193 0.022965 
333 4330127018.922193 0.020056 
334 4330127018.922193 0.021795 
335 4330127018.922193 0.022325 
336 4330127018.922193 0.016094 
337 4330127018.922193 0.020616 
338 4330127018.922193 0.015704 
339 4330127018.922193 0.020184 
340 4330127018.922193 0.015704 
341 4330127018.922193 0.022793 
342 4330127018.922193 0.016536 
343 4330127018.922193 0.024296 
344 4330127018.922193 0.021488 
345 4330127018.922193 0.020495 
346 4330127018.922193 0.018792 
347 4330127018.922193 0.016162 
348 4330127018.922193 0.018906 
349 4330127018.922193 0.014441 
350 4330127018.922193 0.018769 
351 4330127018.922193 0.016686 
352 4330127018.922193 0.024784 
353 4330127018.922193 0.017412 
354 4330127018.922193 0.023199 
355 4330127018.922193 0.022983 
356 4330127018.922193 0.025805 
357 4330127018.922193 0.018654 
358 4330127018.922193 0.017208 
359 4330127018.922193 0.019811 
360 4330127018.922193 0.017115 
361 4330127018.922193 0.022746 
362 4330127018.922193 0.015234 
363 4330127018.922193 0.021352 
364 4330127018.922193 0.021916 
365 4330127018.922193 0.014783 
366 4330127018.922193 0.019658 
367 4330127018.922193 0.013805 
368 4330127018.922193 0.026050 
369 4330127018.922193 0.016519 
370 4330127018.922193 0.023275 
371 4330127018.922193 0.020056 
372 4330127018.922193 0.021803 
373 4330127018.922193 0.022393 
374 4330127018.922193 0.016097 
375 4330127018.922193 0.020626 
376 4330127018.922193 0.015703 
377 4330127018.922193 0.020695 
378 4330127018.922193 0.015703 
379 4330127018.922193 0.023236 
380 4330127018.922193 0.021817 
381 4330127018.922193 0.021090 
382 4330127018.922193 0.015094 
383 4330127018.922193 0.019036 
384 4330127018.922193 0.017693 
385 4330127018.922193 0.025202 
386 4330127018.922193 0.017412 
387 4330127018.922193 0.023199 
388 4330127018.922193 0.022308 
389 4330127018.922193 0.025805 
390 4330127018.922193 0.017978 
391 4330127018.922193 0.016126 
392 4330127018.922193 0.019382 
393 4330127018.922193 0.016615 
394 4330127018.922193 0.022470 
395 4330127018.922193 0.015234 
396 4330127018.922193 0.019899 
397 4330127018.922193 0.025434 
398 4330127018.922193 0.021916 
399 4330127018.922193 0.018756 
400 4330127018.922193 0.015699 
401 4330127018.922193 0.018481 
402 4330127018.922193 0.014929 
403 4330127018.922193 0.019482 
404 4330127018.922193 0.014631 
405 4330127018.922193 0.020951 
406 4330127018.922193 0.019012 
407 4330127018.922193 0.014665 
408 4330127018.922193 0.019899 
409 4330127018.922193 0.013894 
410 4330127018.922193 0.026874 
411 4330127018.922193 0.016519 
412 4330127018.922193 0.023319 
413 4330127018.922193 0.020056 
414 4330127018.922193 0.021803 
415 4330127018.922193 0.022393 
416 4330127018.922193 0.016097 
417 4330127018.922193 0.020626 
418 4330127018.922193 0.015926 
419 4330127018.922193 0.021046 
420 4330127018.922193 0.015948 
421 4330127018.922193 0.022301 
422 4330127018.922193 0.023070 
423 4330127018.922193 0.020287 
424 4330127018.922193 0.015703 
425 4330127018.922193 0.021433 
426 4330127018.922193 0.015703 
427 4330127018.922193 0.023296 
428 4330127018.922193 0.023509 
429 4330127018.922193 0.021189 
430 4330127018.922193 0.015703 
431 4330127018.922193 0.020269 
432 4330127018.922193 0.015703 
433 4330127018.922193 0.022290 
434 4330127018.922193 0.023067 
435 4330127018.922193 0.021045 
436 4330127018.922193 0.016006 
437 4330127018.922193 0.020272 
438 4330127018.922193 0.016052 
439 4330127018.922193 0.022802 
440 4330127018.922193 0.017090 
441 4330127018.922193 0.024340 
442 4330127018.922193 0.021575 
443 4330127018.922193 0.022298 
444 4330127018.922193 0.023297 
445 4330127018.922193 0.016530 
446 4330127018.922193 0.020017 
447 4330127018.922193 0.015704 
448 4330127018.922193 0.020457 
449 4330127018.922193 0.015704 
450 4330127018.922193 0.023167 
451 4330127018.922193 0.022266 
452 4330127018.922193 0.021017 
453 4330127018.922193 0.016024 
454 4330127018.922193 0.020481 
455 4330127018.922193 0.016069 
456 4330127018.922193 0.023103 
457 4330127018.922193 0.017090 
458 4330127018.922193 0.024340 
459 4330127018.922193 0.022298 
460 4330127018.922193 0.022298 
461 4330127018.922193 0.022802 
462 4330127018.922193 0.017090 
463 4330127018.922193 0.020272 
464 4330127018.922193 0.015940 
465 4330127018.922193 0.020705 
466 4330127018.922193 0.015898 
467 4330127018.922193 0.022649 
468 4330127018.922193 0.016529 
469 4330127018.922193 0.023453 
470 4330127018.922193 0.019934 
471 4330127018.922193 0.021657 
472 4330127018.922193 0.018896 
473 4330127018.922193 0.015496 
474 4330127018.922193 0.021718 
475 4330127018.922193 0.018647 
476 4330127018.922193 0.021888 
477 4330127018.922193 0.017502 
478 4330127018.922193 0.020530 
479 4330127018.922193 0.014775 
480 4330127018.922193 0.021670 
481 4330127018.922193 0.023332 
482 4330127018.922193 0.015017 
483 4330127018.922193 0.017412 
484 4330127018.922193 0.017370 
485 4330127018.922193 0.023199 
486 4330127018.922193 0.024081 
487 4330127018.922193 0.025805 
488 4330127018.922193 0.018693 
489 4330127018.922193 0.024993 
490 4330127018.922193 0.018153 
491 4330127018.922193 0.016080 
492 4330127018.922193 0.017968 
493 4330127018.922193 0.014529 
494 4330127018.922193 0.018517 
495 4330127018.922193 0.016311 
496 4330127018.922193 0.027422 
497 4330127018.922193 0.022111 
498 4330127018.922193 0.020796 
499 4330127018.922193 0.023237 
500 4330127018.922193 0.016985 
501 4330127018.922193 0.019992 
502 4330127018.922193 0.015704 
503 4330127018.922193 0.020457 
504 4330127018.922193 0.015704 
505 4330127018.922193 0.023167 
506 4330127018.922193 0.022266 
507 4330127018.922193 0.021017 
508 4330127018.922193 0.016007 
509 4330127018.922193 0.020173 
510 4330127018.922193 0.016045 
511 4330127018.922193 0.022762 
512 4330127018.922193 0.017090 
513 4330127018.922193 0.027934 
514 4330127018.922193 0.022298 
515 4330127018.922193 0.022298 
516 4330127018.922193 0.022793 
517 4330127018.922193 0.017090 
518 4330127018.922193 0.020184 
519 4330127018.922193 0.015965 
520 4330127018.922193 0.021171 
521 4330127018.922193 0.015898 
522 4330127018.922193 0.022317 
523 4330127018.922193 0.022801 
524 4330127018.922193 0.020988 
525 4330127018.922193 0.015704 
526 4330127018.922193 0.020481 
527 4330127018.922193 0.015704 
528 4330127018.922193 0.023103 
529 4330127018.922193 0.017090 
530 4330127018.922193 0.027123 
531 4330127018.922193 0.022298 
532 4330127018.922193 0.022286 
533 4330127018.922193 0.022752 
534 4330127018.922193 0.017086 
535 4330127018.922193 0.020170 
536 4330127018.922193 0.015910 
537 4330127018.922193 0.020478 
538 4330127018.922193 0.015915 
539 4330127018.922193 0.023094 
540 4330127018.922193 0.017086 
541 4330127018.922193 0.027123 
542 4330127018.922193 0.022030 
543 4330127018.922193 0.022286 
544 4330127018.922193 0.023237 
545 4330127018.922193 0.016947 
546 4330127018.922193 0.019992 
547 4330127018.922193 0.015704 
548 4330127018.922193 0.019490 
549 4330127018.922193 0.015704 
550 4330127018.922193 0.022098 
551 4330127018.922193 0.016529 
552 4330127018.922193 0.024117 
553 4330127018.922193 0.020603 
554 4330127018.922193 0.021657 
555 4330127018.922193 0.019942 
556 4330127018.922193 0.015562 
557 4330127018.922193 0.021888 
558 4330127018.922193 0.017647 
559 4330127018.922193 0.021718 
560 4330127018.922193 0.018647 
561 4330127018.922193 0.018896 
562 4330127018.922193 0.015460 
563 4330127018.922193 0.023193 
564 4330127018.922193 0.019910 
565 4330127018.922193 0.021664 
566 4330127018.922193 0.022125 
567 4330127018.922193 0.016531 
568 4330127018.922193 0.019483 
569 4330127018.922193 0.015703 
570 4330127018.922193 0.021309 
571 4330127018.922193 0.015703 
572 4330127018.922193 0.022323 
573 4330127018.922193 0.023505 
574 4330127018.922193 0.020988 
575 4330127018.922193 0.015703 
576 4330127018.922193 0.020858 
577 4330127018.922193 0.015703 
578 4330127018.922193 0.023151 
579 4330127018.922193 0.021924 
580 4330127018.922193 0.021268 
581 4330127018.922193 0.016050 
582 4330127018.922193 0.020704 
583 4330127018.922193 0.016052 
584 4330127018.922193 0.022653 
585 4330127018.922193 0.016531 
586 4330127018.922193 0.024198 
587 4330127018.922193 0.020627 
588 4330127018.922193 0.021664 
589 4330127018.922193 0.020114 
590 4330127018.922193 0.015570 
591 4330127018.922193 0.022069 
592 4330127018.922193 0.017617 
593 4330127018.922193 0.022069 
594 4330127018.922193 0.017717 
595 4330127018.922193 0.019977 
596 4330127018.922193 0.015624 
597 4330127018.922193 0.023551 
598 4330127018.922193 0.025123 
599 4330127018.922193 0.020552 
600 4330127018.922193 0.017803 
601 4330127018.922193 0.015295 
602 4330127018.922193 0.020056 
603 4330127018.922193 0.014531 
604 4330127018.922193 0.026874 
605 4330127018.922193 0.016519 
606 4330127018.922193 0.019899 
607 4330127018.922193 0.014073 
608 4330127018.922193 0.019899 
609 4330127018.922193 0.014073 
610 4330127018.922193 0.026874 
611 4330127018.922193 0.015999 
612 4330127018.922193 0.022246 
613 4330127018.922193 0.020899 
614 4330127018.922193 0.020038 
615 4330127018.922193 0.021995 
616 4330127018.922193 0.015830 
617 4330127018.922193 0.020150 
618 4330127018.922193 0.015637 
619 4330127018.922193 0.019304 
620 4330127018.922193 0.015637 
621 4330127018.922193 0.024148 
622 4330127018.922193 0.018775 
623 4330127018.922193 0.025329 
624 4330127018.922193 0.024645 
625 4330127018.922193 0.024357 
626 4330127018.922193 0.018293 
627 4330127018.922193 0.015800 
628 4330127018.922193 0.020137 
629 4330127018.922193 0.017233 
630 4330127018.922193 0.014239 
631 4330127018.922193 0.018692 
632 4330127018.922193 0.013426 
633 4330127018.922193 0.026039 
634 4330127018.922193 0.017858 
635 4330127018.922193 0.025413 
636 4330127018.922193 0.023817 
637 4330127018.922193 0.023817 
638 4330127018.922193 0.026036 
639 4330127018.922193 0.017858 
640 4330127018.922193 0.018674 
641 4330127018.922193 0.013425 
642 4330127018.922193 0.020125 
643 4330127018.922193 0.016854 
644 4330127018.922193 0.014240 
645 4330127018.922193 0.019241 
646 4330127018.922193 0.014925 
647 4330127018.922193 0.022044 
648 4330127018.922193 0.014181 
649 4330127018.922193 0.025270 
650 4330127018.922193 0.019002 
651 4330127018.922193 0.021013 
652 4330127018.922193 0.019851 
653 4330127018.922193 0.017779 
654 4330127018.922193 0.021122 
655 4330127018.922193 0.015587 
656 4330127018.922193 0.021814 
657 4330127018.922193 0.016724 
658 4330127018.922193 0.022957 
659 4330127018.922193 0.019591 
660 4330127018.922193 0.020317 
661 4330127018.922193 0.019034 
662 4330127018.922193 0.014872 
663 4330127018.922193 0.022215 
664 4330127018.922193 0.018596 
665 4330127018.922193 0.022215 
666 4330127018.922193 0.018696 
667 4330127018.922193 0.018978 
668 4330127018.922193 0.015547 
669 4330127018.922193 0.023668 
670 4330127018.922193 0.025132 
671 4330127018.922193 0.019939 
672 4330127018.922193 0.017743 
673 4330127018.922193 0.017878 
674 4330127018.922193 0.020056 
675 4330127018.922193 0.013396 
676 4330127018.922193 0.026874 
677 4330127018.922193 0.016519 
678 4330127018.922193 0.019899 
679 4330127018.922193 0.014073 
680 4330127018.922193 0.019899 
681 4330127018.922193 0.014073 
682 4330127018.922193 0.026874 
683 4330127018.922193 0.016519 
684 4330127018.922193 0.023013 
685 4330127018.922193 0.020056 
686 4330127018.922193 0.021803 
687 4330127018.922193 0.022047 
688 4330127018.922193 0.016097 
689 4330127018.922193 0.020373 
690 4330127018.922193 0.015703 
691 4330127018.922193 0.020616 
692 4330127018.922193 0.015703 
693 4330127018.922193 0.023168 
694 4330127018.922193 0.022473 
695 4330127018.922193 0.021017 
696 4330127018.922193 0.016068 
697 4330127018.922193 0.021017 
698 4330127018.922193 0.016068 
699 4330127018.922193 0.023168 
700 4330127018.922193 0.022290 
701 4330127018.922193 0.020448 
702 4330127018.922193 0.015703 
703 4330127018.922193 0.020448 
704 4330127018.922193 0.015703 
705 4330127018.922193 0.022848 
706 4330127018.922193 0.016097 
707 4330127018.922193 0.023205 
708 4330127018.922193 0.020056 
709 4330127018.922193 0.021803 
710 4330127018.922193 0.026874 
711 4330127018.922193 0.016519 
712 4330127018.922193 0.019899 
713 4330127018.922193 0.014073 
714 4330127018.922193 0.019899 
715 4330127018.922193 0.014073 
716 4330127018.922193 0.026874 
717 4330127018.922193 0.016519 
718 4330127018.922193 0.022991 
719 4330127018.922193 0.020056 
720 4330127018.922193 0.018802 
721 4330127018.922193 0.020978 
722 4330127018.922193 0.015196 
723 4330127018.922193 0.021357 
724 4330127018.922193 0.014925 
725 4330127018.922193 0.019039 
726 4330127018.922193 0.017795 
727 4330127018.922193 0.025129 
728 4330127018.922193 0.017412 
729 4330127018.922193 0.023199 
730 4330127018.922193 0.023118 
731 4330127018.922193 0.025805 
732 4330127018.922193 0.018519 
733 4330127018.922193 0.019278 
734 4330127018.922193 0.025172 
735 4330127018.922193 0.017425 
736 4330127018.922193 0.024185 
737 4330127018.922193 0.017148 
738 4330127018.922193 0.017359 
739 4330127018.922193 0.015431 
740 4330127018.922193 0.021689 
741 4330127018.922193 0.024203 
742 4330127018.922193 0.020505 
743 4330127018.922193 0.018424 
744 4330127018.922193 0.025277 
745 4330127018.922193 0.018704 
746 4330127018.922193 0.017372 
747 4330127018.922193 0.017964 
748 4330127018.922193 0.014550 
749 4330127018.922193 0.018554 
750 4330127018.922193 0.020113 
751 4330127018.922193 0.019360 
752 4330127018.922193 0.014644 
753 4330127018.922193 0.018924 
754 4330127018.922193 0.017187 
755 4330127018.922193 0.024994 
756 4330127018.922193 0.017412 
757 4330127018.922193 0.023199 
758 4330127018.922193 0.024011 
759 4330127018.922193 0.025805 
760 4330127018.922193 0.018924 
761 4330127018.922193 0.025085 
762 4330127018.922193 0.018745 
763 4330127018.922193 0.017372 
764 4330127018.922193 0.019160 
765 4330127018.922193 0.014550 
766 4330127018.922193 0.018721 
767 4330127018.922193 0.018578 
768 4330127018.922193 0.017931 
769 4330127018.922193 0.014550 
770 4330127018.922193 0.019039 
771 4330127018.922193 0.017372 
772 4330127018.922193 0.025129 
773 4330127018.922193 0.017412 
774 4330127018.922193 0.023199 
775 4330127018.922193 0.024069 
776 4330127018.922193 0.025805 
777 4330127018.922193 0.018769 
778 4330127018.922193 0.024627 
779 4330127018.922193 0.018508 
780 4330127018.922193 0.016671 
781 4330127018.922193 0.018906 
782 4330127018.922193 0.014417 
783 4330127018.922193 0.018792 
784 4330127018.922193 0.016221 
785 4330127018.922193 0.024545 
786 4330127018.922193 0.024852 
787 4330127018.922193 0.020508 
788 4330127018.922193 0.018246 
789 4330127018.922193 0.015040 
790 4330127018.922193 0.022452 
791 4330127018.922193 0.020575 
792 4330127018.922193 0.014790 
793 4330127018.922193 0.026874 
794 4330127018.922193 0.016185 
795 4330127018.922193 0.019899 
796 4330127018.922193 0.014073 
797 4330127018.922193 0.019899 
798 4330127018.922193 0.014073 
799 4330127018.922193 0.026874 
800 4330127018.922193 0.016519 
801 4330127018.922193 0.022828 
802 4330127018.922193 0.020056 
803 4330127018.922193 0.018802 
804 4330127018.922193 0.021137 
805 4330127018.922193 0.015196 
806 4330127018.922193 0.019932 
807 4330127018.922193 0.014843 
808 4330127018.922193 0.019036 
809 4330127018.922193 0.017445 
810 4330127018.922193 0.025202 
811 4330127018.922193 0.017412 
812 4330127018.922193 0.023199 
813 4330127018.922193 0.024014 
814 4330127018.922193 0.025805 
815 4330127018.922193 0.018867 
816 4330127018.922193 0.025349 
817 4330127018.922193 0.018482 
818 4330127018.922193 0.017372 
819 4330127018.922193 0.019160 
820 4330127018.922193 0.014550 
821 4330127018.922193 0.018721 
822 4330127018.922193 0.018578 
823 4330127018.922193 0.017931 
824 4330127018.922193 0.014550 
825 4330127018.922193 0.019039 
826 4330127018.922193 0.017372 
827 4330127018.922193 0.025129 
828 4330127018.922193 0.017412 
829 4330127018.922193 0.023199 
830 4330127018.922193 0.024014 
831 4330127018.922193 0.025805 
832 4330127018.922193 0.018867 
833 4330127018.922193 0.025411 
834 4330127018.922193 0.018505 
835 4330127018.922193 0.017372 
836 4330127018.922193 0.019497 
837 4330127018.922193 0.014550 
838 4330127018.922193 0.023354 
839 4330127018.922193 0.019204 
840 4330127018.922193 0.021071 
841 4330127018.922193 0.015977 
842 4330127018.922193 0.021046 
843 4330127018.922193 0.015957 
844 4330127018.922193 0.022301 
845 4330127018.922193 0.023070 
846 4330127018.922193 0.020287 
847 4330127018.922193 0.015703 
848 4330127018.922193 0.021309 
849 4330127018.922193 0.015703 
850 4330127018.922193 0.022323 
851 4330127018.922193 0.023505 
852 4330127018.922193 0.020988 
853 4330127018.922193 0.015703 
854 4330127018.922193 0.020494 
855 4330127018.922193 0.015703 
856 4330127018.922193 0.022586 
857 4330127018.922193 0.016531 
858 4330127018.922193 0.023551 
859 4330127018.922193 0.020501 
860 4330127018.922193 0.021664 
861 4330127018.922193 0.018693 
862 4330127018.922193 0.015664 
863 4330127018.922193 0.018114 
864 4330127018.922193 0.017794 
865 4330127018.922193 0.017934 
866 4330127018.922193 0.016289 
867 4330127018.922193 0.019581 
868 4330127018.922193 0.016544 
869 4330127018.922193 0.019914 
870 4330127018.922193 0.020530 
871 4330127018.922193 0.022122 
872 4330127018.922193 0.017502 
873 4330127018.922193 0.022122 
874 4330127018.922193 0.018560 
875 4330127018.922193 0.019031 
876 4330127018.922193 0.014851 
877 4330127018.922193 0.022914 
878 4330127018.922193 0.019586 
879 4330127018.922193 0.014720 
880 4330127018.922193 0.018246 
881 4330127018.922193 0.013899 
882 4330127018.922193 0.024634 
883 4330127018.922193 0.024852 
884 4330127018.922193 0.022298 
885 4330127018.922193 0.022802 
886 4330127018.922193 0.017090 
887 4330127018.922193 0.020272 
888 4330127018.922193 0.015965 
889 4330127018.922193 0.021172 
890 4330127018.922193 0.015903 
891 4330127018.922193 0.022323 
892 4330127018.922193 0.022801 
893 4330127018.922193 0.020988 
894 4330127018.922193 0.015703 
895 4330127018.922193 0.020494 
896 4330127018.922193 0.015703 
897 4330127018.922193 0.022586 
898 4330127018.922193 0.016531 
899 4330127018.922193 0.023551 
900 4330127018.922193 0.020555 
901 4330127018.922193 0.021664 
902 4330127018.922193 0.019312 
903 4330127018.922193 0.015738 
904 4330127018.922193 0.022021 
905 4330127018.922193 0.018472 
906 4330127018.922193 0.022021 
907 4330127018.922193 0.018544 
908 4330127018.922193 0.019015 
909 4330127018.922193 0.015235 
910 4330127018.922193 0.022914 
911 4330127018.922193 0.020136 
912 4330127018.922193 0.014720 
913 4330127018.922193 0.018246 
914 4330127018.922193 0.013899 
915 4330127018.922193 0.026806 
916 4330127018.922193 0.024852 
917 4330127018.922193 0.020706 
918 4330127018.922193 0.018517 
919 4330127018.922193 0.016196 
920 4330127018.922193 0.017968 
921 4330127018.922193 0.014529 
922 4330127018.922193 0.018918 
923 4330127018.922193 0.016080 
924 4330127018.922193 0.025079 
925 4330127018.922193 0.017412 
926 4330127018.922193 0.023199 
927 4330127018.922193 0.024011 
928 4330127018.922193 0.025805 
929 4330127018.922193 0.018924 
930 4330127018.922193 0.025174 
931 4330127018.922193 0.018768 
932 4330127018.922193 0.017372 
933 4330127018.922193 0.018765 
934 4330127018.922193 0.014550 
935 4330127018.922193 0.018665 