14926
 Atoms. Timestep: 0
4 -2.17496 -2.17381 0
4 -1.87496 -2.17381 0
4 -1.87496 -1.87381 0
4 -2.17496 -1.87381 0
4 -0.82496 -2.17381 0
4 -0.52496 -2.17381 0
4 -0.52496 -1.87381 0
4 -0.82496 -1.87381 0
4 0.52504 -2.17381 0
4 0.82504 -2.17381 0
4 0.82504 -1.87381 0
4 0.52504 -1.87381 0
4 1.87504 -2.17381 0
4 2.17504 -2.17381 0
4 2.17504 -1.87381 0
4 1.87504 -1.87381 0
4 -2.17496 -0.823812 0
4 -1.87496 -0.823812 0
4 -1.87496 -0.523812 0
4 -2.17496 -0.523812 0
4 -0.82496 -0.823812 0
4 -0.52496 -0.823812 0
4 -0.52496 -0.523812 0
4 -0.82496 -0.523812 0
4 0.52504 -0.823812 0
4 0.82504 -0.823812 0
4 0.82504 -0.523812 0
4 0.52504 -0.523812 0
4 1.87504 -0.823812 0
4 2.17504 -0.823812 0
4 2.17504 -0.523812 0
4 1.87504 -0.523812 0
4 -2.17496 0.526188 0
4 -1.87496 0.526188 0
4 -1.87496 0.826188 0
4 -2.17496 0.826188 0
4 -0.82496 0.526188 0
4 -0.52496 0.526188 0
4 -0.52496 0.826188 0
4 -0.82496 0.826188 0
4 0.52504 0.526188 0
4 0.82504 0.526188 0
4 0.82504 0.826188 0
4 0.52504 0.826188 0
4 1.87504 0.526188 0
4 2.17504 0.526188 0
4 2.17504 0.826188 0
4 1.87504 0.826188 0
4 -2.17496 1.87619 0
4 -1.87496 1.87619 0
4 -1.87496 2.17619 0
4 -2.17496 2.17619 0
4 -0.82496 1.87619 0
4 -0.52496 1.87619 0
4 -0.52496 2.17619 0
4 -0.82496 2.17619 0
4 0.52504 1.87619 0
4 0.82504 1.87619 0
4 0.82504 2.17619 0
4 0.52504 2.17619 0
4 1.87504 1.87619 0
4 2.17504 1.87619 0
4 2.17504 2.17619 0
4 1.87504 2.17619 0
1 -2.24996 -1.79881 0
1 -2.24996 -2.24881 0
1 -2.09996 -1.79881 0
1 -1.79996 -2.24881 0
1 -2.09996 -0.898812 0
1 -1.79996 -2.09881 0
1 -2.24996 -0.898812 0
1 -0.89996 -2.09881 0
1 -2.24996 -0.448812 0
1 -0.89996 -2.24881 0
1 -2.09996 -0.448812 0
1 -0.44996 -2.24881 0
1 -2.09996 0.451188 0
1 -0.44996 -2.09881 0
1 -2.24996 0.451188 0
1 0.45004 -2.09881 0
1 -2.24996 0.901188 0
1 0.45004 -2.24881 0
1 -2.09996 0.901188 0
1 0.90004 -2.24881 0
1 -2.09996 1.80119 0
1 0.90004 -2.09881 0
1 -2.24996 1.80119 0
1 1.80004 -2.09881 0
1 -2.24996 2.25119 0
1 1.80004 -2.24881 0
1 -1.79996 2.25119 0
1 2.25004 -2.24881 0
1 -1.79996 2.10119 0
1 2.25004 -1.79881 0
1 -0.89996 2.10119 0
1 2.10004 -1.79881 0
1 -0.89996 2.25119 0
1 2.10004 -0.898812 0
1 -0.44996 2.25119 0
1 2.25004 -0.898812 0
1 -0.44996 2.10119 0
1 2.25004 -0.448812 0
1 0.45004 2.10119 0
1 2.10004 -0.448812 0
1 0.45004 2.25119 0
1 2.10004 0.451188 0
1 0.90004 2.25119 0
1 2.25004 0.451188 0
1 0.90004 2.10119 0
1 2.25004 0.901188 0
1 1.80004 2.10119 0
1 2.10004 0.901188 0
1 1.80004 2.25119 0
1 2.10004 1.80119 0
1 2.25004 2.25119 0
1 2.25004 1.80119 0
1 -1.94996 -0.898812 0
1 -1.94996 -1.79881 0
1 -1.79996 -0.898812 0
1 -1.79996 -1.79881 0
1 -1.79996 -0.748812 0
1 -1.79996 -1.94881 0
1 -0.89996 -0.748812 0
1 -0.89996 -1.94881 0
1 -0.89996 -0.898812 0
1 -0.89996 -1.79881 0
1 -0.74996 -0.898812 0
1 -0.74996 -1.79881 0
1 -0.59996 -1.79881 0
1 -0.59996 -0.898812 0
1 -0.44996 -1.79881 0
1 -0.44996 -0.898812 0
1 -0.44996 -1.94881 0
1 -0.44996 -0.748812 0
1 0.45004 -1.94881 0
1 0.45004 -0.748812 0
1 0.45004 -1.79881 0
1 0.45004 -0.898812 0
1 0.60004 -1.79881 0
1 0.60004 -0.898812 0
1 0.75004 -1.79881 0
1 0.75004 -0.898812 0
1 0.90004 -1.79881 0
1 0.90004 -0.898812 0
1 0.90004 -1.94881 0
1 0.90004 -0.748812 0
1 1.80004 -1.94881 0
1 1.80004 -0.748812 0
1 1.80004 -1.79881 0
1 1.80004 -0.898812 0
1 1.95004 -1.79881 0
1 1.95004 -0.898812 0
1 -1.94996 0.451188 0
1 -1.94996 -0.448812 0
1 -1.79996 0.451188 0
1 -1.79996 -0.448812 0
1 -1.79996 0.601188 0
1 -1.79996 -0.598812 0
1 -0.89996 0.601188 0
1 -0.89996 -0.598812 0
1 -0.89996 0.451188 0
1 -0.89996 -0.448812 0
1 -0.74996 0.451188 0
1 -0.74996 -0.448812 0
1 -1.94996 1.80119 0
1 -1.94996 0.901188 0
1 -1.79996 1.80119 0
1 -1.79996 0.901188 0
1 -1.79996 1.95119 0
1 -1.79996 0.751188 0
1 -0.89996 1.95119 0
1 -0.89996 0.751188 0
1 -0.89996 1.80119 0
1 -0.89996 0.901188 0
1 -0.74996 1.80119 0
1 -0.74996 0.901188 0
1 -0.59996 -0.448812 0
1 -0.59996 0.451188 0
1 -0.44996 -0.448812 0
1 -0.44996 0.451188 0
1 -0.44996 -0.598812 0
1 -0.44996 0.601188 0
1 0.45004 -0.598812 0
1 0.45004 0.601188 0
1 0.45004 -0.448812 0
1 0.45004 0.451188 0
1 0.60004 -0.448812 0
1 0.60004 0.451188 0
1 0.75004 -0.448812 0
1 0.75004 0.451188 0
1 0.90004 -0.448812 0
1 0.90004 0.451188 0
1 0.90004 -0.598812 0
1 0.90004 0.601188 0
1 1.80004 -0.598812 0
1 1.80004 0.601188 0
1 1.80004 -0.448812 0
1 1.80004 0.451188 0
1 1.95004 -0.448812 0
1 1.95004 0.451188 0
1 -0.59996 0.901188 0
1 -0.59996 1.80119 0
1 -0.44996 0.901188 0
1 -0.44996 1.80119 0
1 -0.44996 0.751188 0
1 -0.44996 1.95119 0
1 0.45004 0.751188 0
1 0.45004 1.95119 0
1 0.45004 0.901188 0
1 0.45004 1.80119 0
1 0.60004 0.901188 0
1 0.60004 1.80119 0
1 0.75004 0.901188 0
1 0.75004 1.80119 0
1 0.90004 0.901188 0
1 0.90004 1.80119 0
1 0.90004 0.751188 0
1 0.90004 1.95119 0
1 1.80004 0.751188 0
1 1.80004 1.95119 0
1 1.80004 0.901188 0
1 1.80004 1.80119 0
1 1.95004 0.901188 0
1 1.95004 1.80119 0
4 -2.14996 -2.17381 0
4 -2.12496 -2.17381 0
4 -2.09996 -2.17381 0
4 -2.07496 -2.17381 0
4 -2.04996 -2.17381 0
4 -2.02496 -2.17381 0
4 -1.99996 -2.17381 0
4 -1.97496 -2.17381 0
4 -1.94996 -2.17381 0
4 -1.92496 -2.17381 0
4 -1.89996 -2.17381 0
4 -1.87496 -2.14881 0
4 -1.87496 -2.12381 0
4 -1.87496 -2.09881 0
4 -1.87496 -2.07381 0
4 -1.87496 -2.04881 0
4 -1.87496 -2.02381 0
4 -1.87496 -1.99881 0
4 -1.87496 -1.97381 0
4 -1.87496 -1.94881 0
4 -1.87496 -1.92381 0
4 -1.87496 -1.89881 0
4 -1.89996 -1.87381 0
4 -1.92496 -1.87381 0
4 -1.94996 -1.87381 0
4 -1.97496 -1.87381 0
4 -1.99996 -1.87381 0
4 -2.02496 -1.87381 0
4 -2.04996 -1.87381 0
4 -2.07496 -1.87381 0
4 -2.09996 -1.87381 0
4 -2.12496 -1.87381 0
4 -2.14996 -1.87381 0
4 -2.17496 -1.89881 0
4 -2.17496 -1.92381 0
4 -2.17496 -1.94881 0
4 -2.17496 -1.97381 0
4 -2.17496 -1.99881 0
4 -2.17496 -2.02381 0
4 -2.17496 -2.04881 0
4 -2.17496 -2.07381 0
4 -2.17496 -2.09881 0
4 -2.17496 -2.12381 0
4 -2.17496 -2.14881 0
4 -0.79996 -2.17381 0
4 -0.77496 -2.17381 0
4 -0.74996 -2.17381 0
4 -0.72496 -2.17381 0
4 -0.69996 -2.17381 0
4 -0.67496 -2.17381 0
4 -0.64996 -2.17381 0
4 -0.62496 -2.17381 0
4 -0.59996 -2.17381 0
4 -0.57496 -2.17381 0
4 -0.54996 -2.17381 0
4 -0.52496 -2.14881 0
4 -0.52496 -2.12381 0
4 -0.52496 -2.09881 0
4 -0.52496 -2.07381 0
4 -0.52496 -2.04881 0
4 -0.52496 -2.02381 0
4 -0.52496 -1.99881 0
4 -0.52496 -1.97381 0
4 -0.52496 -1.94881 0
4 -0.52496 -1.92381 0
4 -0.52496 -1.89881 0
4 -0.54996 -1.87381 0
4 -0.57496 -1.87381 0
4 -0.59996 -1.87381 0
4 -0.62496 -1.87381 0
4 -0.64996 -1.87381 0
4 -0.67496 -1.87381 0
4 -0.69996 -1.87381 0
4 -0.72496 -1.87381 0
4 -0.74996 -1.87381 0
4 -0.77496 -1.87381 0
4 -0.79996 -1.87381 0
4 -0.82496 -1.89881 0
4 -0.82496 -1.92381 0
4 -0.82496 -1.94881 0
4 -0.82496 -1.97381 0
4 -0.82496 -1.99881 0
4 -0.82496 -2.02381 0
4 -0.82496 -2.04881 0
4 -0.82496 -2.07381 0
4 -0.82496 -2.09881 0
4 -0.82496 -2.12381 0
4 -0.82496 -2.14881 0
4 0.55004 -2.17381 0
4 0.57504 -2.17381 0
4 0.60004 -2.17381 0
4 0.62504 -2.17381 0
4 0.65004 -2.17381 0
4 0.67504 -2.17381 0
4 0.70004 -2.17381 0
4 0.72504 -2.17381 0
4 0.75004 -2.17381 0
4 0.77504 -2.17381 0
4 0.80004 -2.17381 0
4 0.82504 -2.14881 0
4 0.82504 -2.12381 0
4 0.82504 -2.09881 0
4 0.82504 -2.07381 0
4 0.82504 -2.04881 0
4 0.82504 -2.02381 0
4 0.82504 -1.99881 0
4 0.82504 -1.97381 0
4 0.82504 -1.94881 0
4 0.82504 -1.92381 0
4 0.82504 -1.89881 0
4 0.80004 -1.87381 0
4 0.77504 -1.87381 0
4 0.75004 -1.87381 0
4 0.72504 -1.87381 0
4 0.70004 -1.87381 0
4 0.67504 -1.87381 0
4 0.65004 -1.87381 0
4 0.62504 -1.87381 0
4 0.60004 -1.87381 0
4 0.57504 -1.87381 0
4 0.55004 -1.87381 0
4 0.52504 -1.89881 0
4 0.52504 -1.92381 0
4 0.52504 -1.94881 0
4 0.52504 -1.97381 0
4 0.52504 -1.99881 0
4 0.52504 -2.02381 0
4 0.52504 -2.04881 0
4 0.52504 -2.07381 0
4 0.52504 -2.09881 0
4 0.52504 -2.12381 0
4 0.52504 -2.14881 0
4 1.90004 -2.17381 0
4 1.92504 -2.17381 0
4 1.95004 -2.17381 0
4 1.97504 -2.17381 0
4 2.00004 -2.17381 0
4 2.02504 -2.17381 0
4 2.05004 -2.17381 0
4 2.07504 -2.17381 0
4 2.10004 -2.17381 0
4 2.12504 -2.17381 0
4 2.15004 -2.17381 0
4 2.17504 -2.14881 0
4 2.17504 -2.12381 0
4 2.17504 -2.09881 0
4 2.17504 -2.07381 0
4 2.17504 -2.04881 0
4 2.17504 -2.02381 0
4 2.17504 -1.99881 0
4 2.17504 -1.97381 0
4 2.17504 -1.94881 0
4 2.17504 -1.92381 0
4 2.17504 -1.89881 0
4 2.15004 -1.87381 0
4 2.12504 -1.87381 0
4 2.10004 -1.87381 0
4 2.07504 -1.87381 0
4 2.05004 -1.87381 0
4 2.02504 -1.87381 0
4 2.00004 -1.87381 0
4 1.97504 -1.87381 0
4 1.95004 -1.87381 0
4 1.92504 -1.87381 0
4 1.90004 -1.87381 0
4 1.87504 -1.89881 0
4 1.87504 -1.92381 0
4 1.87504 -1.94881 0
4 1.87504 -1.97381 0
4 1.87504 -1.99881 0
4 1.87504 -2.02381 0
4 1.87504 -2.04881 0
4 1.87504 -2.07381 0
4 1.87504 -2.09881 0
4 1.87504 -2.12381 0
4 1.87504 -2.14881 0
4 -2.14996 -0.823812 0
4 -2.12496 -0.823812 0
4 -2.09996 -0.823812 0
4 -2.07496 -0.823812 0
4 -2.04996 -0.823812 0
4 -2.02496 -0.823812 0
4 -1.99996 -0.823812 0
4 -1.97496 -0.823812 0
4 -1.94996 -0.823812 0
4 -1.92496 -0.823812 0
4 -1.89996 -0.823812 0
4 -1.87496 -0.798812 0
4 -1.87496 -0.773812 0
4 -1.87496 -0.748812 0
4 -1.87496 -0.723812 0
4 -1.87496 -0.698812 0
4 -1.87496 -0.673812 0
4 -1.87496 -0.648812 0
4 -1.87496 -0.623812 0
4 -1.87496 -0.598812 0
4 -1.87496 -0.573812 0
4 -1.87496 -0.548812 0
4 -1.89996 -0.523812 0
4 -1.92496 -0.523812 0
4 -1.94996 -0.523812 0
4 -1.97496 -0.523812 0
4 -1.99996 -0.523812 0
4 -2.02496 -0.523812 0
4 -2.04996 -0.523812 0
4 -2.07496 -0.523812 0
4 -2.09996 -0.523812 0
4 -2.12496 -0.523812 0
4 -2.14996 -0.523812 0
4 -2.17496 -0.548812 0
4 -2.17496 -0.573812 0
4 -2.17496 -0.598812 0
4 -2.17496 -0.623812 0
4 -2.17496 -0.648812 0
4 -2.17496 -0.673812 0
4 -2.17496 -0.698812 0
4 -2.17496 -0.723812 0
4 -2.17496 -0.748812 0
4 -2.17496 -0.773812 0
4 -2.17496 -0.798812 0
4 -0.79996 -0.823812 0
4 -0.77496 -0.823812 0
4 -0.74996 -0.823812 0
4 -0.72496 -0.823812 0
4 -0.69996 -0.823812 0
4 -0.67496 -0.823812 0
4 -0.64996 -0.823812 0
4 -0.62496 -0.823812 0
4 -0.59996 -0.823812 0
4 -0.57496 -0.823812 0
4 -0.54996 -0.823812 0
4 -0.52496 -0.798812 0
4 -0.52496 -0.773812 0
4 -0.52496 -0.748812 0
4 -0.52496 -0.723812 0
4 -0.52496 -0.698812 0
4 -0.52496 -0.673812 0
4 -0.52496 -0.648812 0
4 -0.52496 -0.623812 0
4 -0.52496 -0.598812 0
4 -0.52496 -0.573812 0
4 -0.52496 -0.548812 0
4 -0.54996 -0.523812 0
4 -0.57496 -0.523812 0
4 -0.59996 -0.523812 0
4 -0.62496 -0.523812 0
4 -0.64996 -0.523812 0
4 -0.67496 -0.523812 0
4 -0.69996 -0.523812 0
4 -0.72496 -0.523812 0
4 -0.74996 -0.523812 0
4 -0.77496 -0.523812 0
4 -0.79996 -0.523812 0
4 -0.82496 -0.548812 0
4 -0.82496 -0.573812 0
4 -0.82496 -0.598812 0
4 -0.82496 -0.623812 0
4 -0.82496 -0.648812 0
4 -0.82496 -0.673812 0
4 -0.82496 -0.698812 0
4 -0.82496 -0.723812 0
4 -0.82496 -0.748812 0
4 -0.82496 -0.773812 0
4 -0.82496 -0.798812 0
4 0.55004 -0.823812 0
4 0.57504 -0.823812 0
4 0.60004 -0.823812 0
4 0.62504 -0.823812 0
4 0.65004 -0.823812 0
4 0.67504 -0.823812 0
4 0.70004 -0.823812 0
4 0.72504 -0.823812 0
4 0.75004 -0.823812 0
4 0.77504 -0.823812 0
4 0.80004 -0.823812 0
4 0.82504 -0.798812 0
4 0.82504 -0.773812 0
4 0.82504 -0.748812 0
4 0.82504 -0.723812 0
4 0.82504 -0.698812 0
4 0.82504 -0.673812 0
4 0.82504 -0.648812 0
4 0.82504 -0.623812 0
4 0.82504 -0.598812 0
4 0.82504 -0.573812 0
4 0.82504 -0.548812 0
4 0.80004 -0.523812 0
4 0.77504 -0.523812 0
4 0.75004 -0.523812 0
4 0.72504 -0.523812 0
4 0.70004 -0.523812 0
4 0.67504 -0.523812 0
4 0.65004 -0.523812 0
4 0.62504 -0.523812 0
4 0.60004 -0.523812 0
4 0.57504 -0.523812 0
4 0.55004 -0.523812 0
4 0.52504 -0.548812 0
4 0.52504 -0.573812 0
4 0.52504 -0.598812 0
4 0.52504 -0.623812 0
4 0.52504 -0.648812 0
4 0.52504 -0.673812 0
4 0.52504 -0.698812 0
4 0.52504 -0.723812 0
4 0.52504 -0.748812 0
4 0.52504 -0.773812 0
4 0.52504 -0.798812 0
4 1.90004 -0.823812 0
4 1.92504 -0.823812 0
4 1.95004 -0.823812 0
4 1.97504 -0.823812 0
4 2.00004 -0.823812 0
4 2.02504 -0.823812 0
4 2.05004 -0.823812 0
4 2.07504 -0.823812 0
4 2.10004 -0.823812 0
4 2.12504 -0.823812 0
4 2.15004 -0.823812 0
4 2.17504 -0.798812 0
4 2.17504 -0.773812 0
4 2.17504 -0.748812 0
4 2.17504 -0.723812 0
4 2.17504 -0.698812 0
4 2.17504 -0.673812 0
4 2.17504 -0.648812 0
4 2.17504 -0.623812 0
4 2.17504 -0.598812 0
4 2.17504 -0.573812 0
4 2.17504 -0.548812 0
4 2.15004 -0.523812 0
4 2.12504 -0.523812 0
4 2.10004 -0.523812 0
4 2.07504 -0.523812 0
4 2.05004 -0.523812 0
4 2.02504 -0.523812 0
4 2.00004 -0.523812 0
4 1.97504 -0.523812 0
4 1.95004 -0.523812 0
4 1.92504 -0.523812 0
4 1.90004 -0.523812 0
4 1.87504 -0.548812 0
4 1.87504 -0.573812 0
4 1.87504 -0.598812 0
4 1.87504 -0.623812 0
4 1.87504 -0.648812 0
4 1.87504 -0.673812 0
4 1.87504 -0.698812 0
4 1.87504 -0.723812 0
4 1.87504 -0.748812 0
4 1.87504 -0.773812 0
4 1.87504 -0.798812 0
4 -2.14996 0.526188 0
4 -2.12496 0.526188 0
4 -2.09996 0.526188 0
4 -2.07496 0.526188 0
4 -2.04996 0.526188 0
4 -2.02496 0.526188 0
4 -1.99996 0.526188 0
4 -1.97496 0.526188 0
4 -1.94996 0.526188 0
4 -1.92496 0.526188 0
4 -1.89996 0.526188 0
4 -1.87496 0.551188 0
4 -1.87496 0.576188 0
4 -1.87496 0.601188 0
4 -1.87496 0.626188 0
4 -1.87496 0.651188 0
4 -1.87496 0.676188 0
4 -1.87496 0.701188 0
4 -1.87496 0.726188 0
4 -1.87496 0.751188 0
4 -1.87496 0.776188 0
4 -1.87496 0.801188 0
4 -1.89996 0.826188 0
4 -1.92496 0.826188 0
4 -1.94996 0.826188 0
4 -1.97496 0.826188 0
4 -1.99996 0.826188 0
4 -2.02496 0.826188 0
4 -2.04996 0.826188 0
4 -2.07496 0.826188 0
4 -2.09996 0.826188 0
4 -2.12496 0.826188 0
4 -2.14996 0.826188 0
4 -2.17496 0.801188 0
4 -2.17496 0.776188 0
4 -2.17496 0.751188 0
4 -2.17496 0.726188 0
4 -2.17496 0.701188 0
4 -2.17496 0.676188 0
4 -2.17496 0.651188 0
4 -2.17496 0.626188 0
4 -2.17496 0.601188 0
4 -2.17496 0.576188 0
4 -2.17496 0.551188 0
4 -0.79996 0.526188 0
4 -0.77496 0.526188 0
4 -0.74996 0.526188 0
4 -0.72496 0.526188 0
4 -0.69996 0.526188 0
4 -0.67496 0.526188 0
4 -0.64996 0.526188 0
4 -0.62496 0.526188 0
4 -0.59996 0.526188 0
4 -0.57496 0.526188 0
4 -0.54996 0.526188 0
4 -0.52496 0.551188 0
4 -0.52496 0.576188 0
4 -0.52496 0.601188 0
4 -0.52496 0.626188 0
4 -0.52496 0.651188 0
4 -0.52496 0.676188 0
4 -0.52496 0.701188 0
4 -0.52496 0.726188 0
4 -0.52496 0.751188 0
4 -0.52496 0.776188 0
4 -0.52496 0.801188 0
4 -0.54996 0.826188 0
4 -0.57496 0.826188 0
4 -0.59996 0.826188 0
4 -0.62496 0.826188 0
4 -0.64996 0.826188 0
4 -0.67496 0.826188 0
4 -0.69996 0.826188 0
4 -0.72496 0.826188 0
4 -0.74996 0.826188 0
4 -0.77496 0.826188 0
4 -0.79996 0.826188 0
4 -0.82496 0.801188 0
4 -0.82496 0.776188 0
4 -0.82496 0.751188 0
4 -0.82496 0.726188 0
4 -0.82496 0.701188 0
4 -0.82496 0.676188 0
4 -0.82496 0.651188 0
4 -0.82496 0.626188 0
4 -0.82496 0.601188 0
4 -0.82496 0.576188 0
4 -0.82496 0.551188 0
4 0.55004 0.526188 0
4 0.57504 0.526188 0
4 0.60004 0.526188 0
4 0.62504 0.526188 0
4 0.65004 0.526188 0
4 0.67504 0.526188 0
4 0.70004 0.526188 0
4 0.72504 0.526188 0
4 0.75004 0.526188 0
4 0.77504 0.526188 0
4 0.80004 0.526188 0
4 0.82504 0.551188 0
4 0.82504 0.576188 0
4 0.82504 0.601188 0
4 0.82504 0.626188 0
4 0.82504 0.651188 0
4 0.82504 0.676188 0
4 0.82504 0.701188 0
4 0.82504 0.726188 0
4 0.82504 0.751188 0
4 0.82504 0.776188 0
4 0.82504 0.801188 0
4 0.80004 0.826188 0
4 0.77504 0.826188 0
4 0.75004 0.826188 0
4 0.72504 0.826188 0
4 0.70004 0.826188 0
4 0.67504 0.826188 0
4 0.65004 0.826188 0
4 0.62504 0.826188 0
4 0.60004 0.826188 0
4 0.57504 0.826188 0
4 0.55004 0.826188 0
4 0.52504 0.801188 0
4 0.52504 0.776188 0
4 0.52504 0.751188 0
4 0.52504 0.726188 0
4 0.52504 0.701188 0
4 0.52504 0.676188 0
4 0.52504 0.651188 0
4 0.52504 0.626188 0
4 0.52504 0.601188 0
4 0.52504 0.576188 0
4 0.52504 0.551188 0
4 1.90004 0.526188 0
4 1.92504 0.526188 0
4 1.95004 0.526188 0
4 1.97504 0.526188 0
4 2.00004 0.526188 0
4 2.02504 0.526188 0
4 2.05004 0.526188 0
4 2.07504 0.526188 0
4 2.10004 0.526188 0
4 2.12504 0.526188 0
4 2.15004 0.526188 0
4 2.17504 0.551188 0
4 2.17504 0.576188 0
4 2.17504 0.601188 0
4 2.17504 0.626188 0
4 2.17504 0.651188 0
4 2.17504 0.676188 0
4 2.17504 0.701188 0
4 2.17504 0.726188 0
4 2.17504 0.751188 0
4 2.17504 0.776188 0
4 2.17504 0.801188 0
4 2.15004 0.826188 0
4 2.12504 0.826188 0
4 2.10004 0.826188 0
4 2.07504 0.826188 0
4 2.05004 0.826188 0
4 2.02504 0.826188 0
4 2.00004 0.826188 0
4 1.97504 0.826188 0
4 1.95004 0.826188 0
4 1.92504 0.826188 0
4 1.90004 0.826188 0
4 1.87504 0.801188 0
4 1.87504 0.776188 0
4 1.87504 0.751188 0
4 1.87504 0.726188 0
4 1.87504 0.701188 0
4 1.87504 0.676188 0
4 1.87504 0.651188 0
4 1.87504 0.626188 0
4 1.87504 0.601188 0
4 1.87504 0.576188 0
4 1.87504 0.551188 0
4 -2.14996 1.87619 0
4 -2.12496 1.87619 0
4 -2.09996 1.87619 0
4 -2.07496 1.87619 0
4 -2.04996 1.87619 0
4 -2.02496 1.87619 0
4 -1.99996 1.87619 0
4 -1.97496 1.87619 0
4 -1.94996 1.87619 0
4 -1.92496 1.87619 0
4 -1.89996 1.87619 0
4 -1.87496 1.90119 0
4 -1.87496 1.92619 0
4 -1.87496 1.95119 0
4 -1.87496 1.97619 0
4 -1.87496 2.00119 0
4 -1.87496 2.02619 0
4 -1.87496 2.05119 0
4 -1.87496 2.07619 0
4 -1.87496 2.10119 0
4 -1.87496 2.12619 0
4 -1.87496 2.15119 0
4 -1.89996 2.17619 0
4 -1.92496 2.17619 0
4 -1.94996 2.17619 0
4 -1.97496 2.17619 0
4 -1.99996 2.17619 0
4 -2.02496 2.17619 0
4 -2.04996 2.17619 0
4 -2.07496 2.17619 0
4 -2.09996 2.17619 0
4 -2.12496 2.17619 0
4 -2.14996 2.17619 0
4 -2.17496 2.15119 0
4 -2.17496 2.12619 0
4 -2.17496 2.10119 0
4 -2.17496 2.07619 0
4 -2.17496 2.05119 0
4 -2.17496 2.02619 0
4 -2.17496 2.00119 0
4 -2.17496 1.97619 0
4 -2.17496 1.95119 0
4 -2.17496 1.92619 0
4 -2.17496 1.90119 0
4 -0.79996 1.87619 0
4 -0.77496 1.87619 0
4 -0.74996 1.87619 0
4 -0.72496 1.87619 0
4 -0.69996 1.87619 0
4 -0.67496 1.87619 0
4 -0.64996 1.87619 0
4 -0.62496 1.87619 0
4 -0.59996 1.87619 0
4 -0.57496 1.87619 0
4 -0.54996 1.87619 0
4 -0.52496 1.90119 0
4 -0.52496 1.92619 0
4 -0.52496 1.95119 0
4 -0.52496 1.97619 0
4 -0.52496 2.00119 0
4 -0.52496 2.02619 0
4 -0.52496 2.05119 0
4 -0.52496 2.07619 0
4 -0.52496 2.10119 0
4 -0.52496 2.12619 0
4 -0.52496 2.15119 0
4 -0.54996 2.17619 0
4 -0.57496 2.17619 0
4 -0.59996 2.17619 0
4 -0.62496 2.17619 0
4 -0.64996 2.17619 0
4 -0.67496 2.17619 0
4 -0.69996 2.17619 0
4 -0.72496 2.17619 0
4 -0.74996 2.17619 0
4 -0.77496 2.17619 0
4 -0.79996 2.17619 0
4 -0.82496 2.15119 0
4 -0.82496 2.12619 0
4 -0.82496 2.10119 0
4 -0.82496 2.07619 0
4 -0.82496 2.05119 0
4 -0.82496 2.02619 0
4 -0.82496 2.00119 0
4 -0.82496 1.97619 0
4 -0.82496 1.95119 0
4 -0.82496 1.92619 0
4 -0.82496 1.90119 0
4 0.55004 1.87619 0
4 0.57504 1.87619 0
4 0.60004 1.87619 0
4 0.62504 1.87619 0
4 0.65004 1.87619 0
4 0.67504 1.87619 0
4 0.70004 1.87619 0
4 0.72504 1.87619 0
4 0.75004 1.87619 0
4 0.77504 1.87619 0
4 0.80004 1.87619 0
4 0.82504 1.90119 0
4 0.82504 1.92619 0
4 0.82504 1.95119 0
4 0.82504 1.97619 0
4 0.82504 2.00119 0
4 0.82504 2.02619 0
4 0.82504 2.05119 0
4 0.82504 2.07619 0
4 0.82504 2.10119 0
4 0.82504 2.12619 0
4 0.82504 2.15119 0
4 0.80004 2.17619 0
4 0.77504 2.17619 0
4 0.75004 2.17619 0
4 0.72504 2.17619 0
4 0.70004 2.17619 0
4 0.67504 2.17619 0
4 0.65004 2.17619 0
4 0.62504 2.17619 0
4 0.60004 2.17619 0
4 0.57504 2.17619 0
4 0.55004 2.17619 0
4 0.52504 2.15119 0
4 0.52504 2.12619 0
4 0.52504 2.10119 0
4 0.52504 2.07619 0
4 0.52504 2.05119 0
4 0.52504 2.02619 0
4 0.52504 2.00119 0
4 0.52504 1.97619 0
4 0.52504 1.95119 0
4 0.52504 1.92619 0
4 0.52504 1.90119 0
4 1.90004 1.87619 0
4 1.92504 1.87619 0
4 1.95004 1.87619 0
4 1.97504 1.87619 0
4 2.00004 1.87619 0
4 2.02504 1.87619 0
4 2.05004 1.87619 0
4 2.07504 1.87619 0
4 2.10004 1.87619 0
4 2.12504 1.87619 0
4 2.15004 1.87619 0
4 2.17504 1.90119 0
4 2.17504 1.92619 0
4 2.17504 1.95119 0
4 2.17504 1.97619 0
4 2.17504 2.00119 0
4 2.17504 2.02619 0
4 2.17504 2.05119 0
4 2.17504 2.07619 0
4 2.17504 2.10119 0
4 2.17504 2.12619 0
4 2.17504 2.15119 0
4 2.15004 2.17619 0
4 2.12504 2.17619 0
4 2.10004 2.17619 0
4 2.07504 2.17619 0
4 2.05004 2.17619 0
4 2.02504 2.17619 0
4 2.00004 2.17619 0
4 1.97504 2.17619 0
4 1.95004 2.17619 0
4 1.92504 2.17619 0
4 1.90004 2.17619 0
4 1.87504 2.15119 0
4 1.87504 2.12619 0
4 1.87504 2.10119 0
4 1.87504 2.07619 0
4 1.87504 2.05119 0
4 1.87504 2.02619 0
4 1.87504 2.00119 0
4 1.87504 1.97619 0
4 1.87504 1.95119 0
4 1.87504 1.92619 0
4 1.87504 1.90119 0
1 -2.24996 -1.82381 0
1 -2.24996 -1.84881 0
1 -2.24996 -1.87381 0
1 -2.24996 -1.89881 0
1 -2.24996 -1.92381 0
1 -2.24996 -1.94881 0
1 -2.24996 -1.97381 0
1 -2.24996 -1.99881 0
1 -2.24996 -2.02381 0
1 -2.24996 -2.04881 0
1 -2.24996 -2.07381 0
1 -2.24996 -2.09881 0
1 -2.24996 -2.12381 0
1 -2.24996 -2.14881 0
1 -2.24996 -2.17381 0
1 -2.24996 -2.19881 0
1 -2.24996 -2.22381 0
1 -2.12496 -1.79881 0
1 -2.14996 -1.79881 0
1 -2.17496 -1.79881 0
1 -2.19996 -1.79881 0
1 -2.22496 -1.79881 0
1 -2.22496 -2.24881 0
1 -2.19996 -2.24881 0
1 -2.17496 -2.24881 0
1 -2.14996 -2.24881 0
1 -2.12496 -2.24881 0
1 -2.09996 -2.24881 0
1 -2.07496 -2.24881 0
1 -2.04996 -2.24881 0
1 -2.02496 -2.24881 0
1 -1.99996 -2.24881 0
1 -1.97496 -2.24881 0
1 -1.94996 -2.24881 0
1 -1.92496 -2.24881 0
1 -1.89996 -2.24881 0
1 -1.87496 -2.24881 0
1 -1.84996 -2.24881 0
1 -1.82496 -2.24881 0
1 -2.09996 -0.923812 0
1 -2.09996 -0.948812 0
1 -2.09996 -0.973812 0
1 -2.09996 -0.998812 0
1 -2.09996 -1.02381 0
1 -2.09996 -1.04881 0
1 -2.09996 -1.07381 0
1 -2.09996 -1.09881 0
1 -2.09996 -1.12381 0
1 -2.09996 -1.14881 0
1 -2.09996 -1.17381 0
1 -2.09996 -1.19881 0
1 -2.09996 -1.22381 0
1 -2.09996 -1.24881 0
1 -2.09996 -1.27381 0
1 -2.09996 -1.29881 0
1 -2.09996 -1.32381 0
1 -2.09996 -1.34881 0
1 -2.09996 -1.37381 0
1 -2.09996 -1.39881 0
1 -2.09996 -1.42381 0
1 -2.09996 -1.44881 0
1 -2.09996 -1.47381 0
1 -2.09996 -1.49881 0
1 -2.09996 -1.52381 0
1 -2.09996 -1.54881 0
1 -2.09996 -1.57381 0
1 -2.09996 -1.59881 0
1 -2.09996 -1.62381 0
1 -2.09996 -1.64881 0
1 -2.09996 -1.67381 0
1 -2.09996 -1.69881 0
1 -2.09996 -1.72381 0
1 -2.09996 -1.74881 0
1 -2.09996 -1.77381 0
1 -1.79996 -2.22381 0
1 -1.79996 -2.19881 0
1 -1.79996 -2.17381 0
1 -1.79996 -2.14881 0
1 -1.79996 -2.12381 0
1 -2.22496 -0.898812 0
1 -2.19996 -0.898812 0
1 -2.17496 -0.898812 0
1 -2.14996 -0.898812 0
1 -2.12496 -0.898812 0
1 -1.77496 -2.09881 0
1 -1.74996 -2.09881 0
1 -1.72496 -2.09881 0
1 -1.69996 -2.09881 0
1 -1.67496 -2.09881 0
1 -1.64996 -2.09881 0
1 -1.62496 -2.09881 0
1 -1.59996 -2.09881 0
1 -1.57496 -2.09881 0
1 -1.54996 -2.09881 0
1 -1.52496 -2.09881 0
1 -1.49996 -2.09881 0
1 -1.47496 -2.09881 0
1 -1.44996 -2.09881 0
1 -1.42496 -2.09881 0
1 -1.39996 -2.09881 0
1 -1.37496 -2.09881 0
1 -1.34996 -2.09881 0
1 -1.32496 -2.09881 0
1 -1.29996 -2.09881 0
1 -1.27496 -2.09881 0
1 -1.24996 -2.09881 0
1 -1.22496 -2.09881 0
1 -1.19996 -2.09881 0
1 -1.17496 -2.09881 0
1 -1.14996 -2.09881 0
1 -1.12496 -2.09881 0
1 -1.09996 -2.09881 0
1 -1.07496 -2.09881 0
1 -1.04996 -2.09881 0
1 -1.02496 -2.09881 0
1 -0.99996 -2.09881 0
1 -0.97496 -2.09881 0
1 -0.94996 -2.09881 0
1 -0.92496 -2.09881 0
1 -2.24996 -0.473812 0
1 -2.24996 -0.498812 0
1 -2.24996 -0.523812 0
1 -2.24996 -0.548812 0
1 -2.24996 -0.573812 0
1 -2.24996 -0.598812 0
1 -2.24996 -0.623812 0
1 -2.24996 -0.648812 0
1 -2.24996 -0.673812 0
1 -2.24996 -0.698812 0
1 -2.24996 -0.723812 0
1 -2.24996 -0.748812 0
1 -2.24996 -0.773812 0
1 -2.24996 -0.798812 0
1 -2.24996 -0.823812 0
1 -2.24996 -0.848812 0
1 -2.24996 -0.873812 0
1 -0.89996 -2.12381 0
1 -0.89996 -2.14881 0
1 -0.89996 -2.17381 0
1 -0.89996 -2.19881 0
1 -0.89996 -2.22381 0
1 -2.12496 -0.448812 0
1 -2.14996 -0.448812 0
1 -2.17496 -0.448812 0
1 -2.19996 -0.448812 0
1 -2.22496 -0.448812 0
1 -0.87496 -2.24881 0
1 -0.84996 -2.24881 0
1 -0.82496 -2.24881 0
1 -0.79996 -2.24881 0
1 -0.77496 -2.24881 0
1 -0.74996 -2.24881 0
1 -0.72496 -2.24881 0
1 -0.69996 -2.24881 0
1 -0.67496 -2.24881 0
1 -0.64996 -2.24881 0
1 -0.62496 -2.24881 0
1 -0.59996 -2.24881 0
1 -0.57496 -2.24881 0
1 -0.54996 -2.24881 0
1 -0.52496 -2.24881 0
1 -0.49996 -2.24881 0
1 -0.47496 -2.24881 0
1 -2.09996 0.426188 0
1 -2.09996 0.401188 0
1 -2.09996 0.376188 0
1 -2.09996 0.351188 0
1 -2.09996 0.326188 0
1 -2.09996 0.301188 0
1 -2.09996 0.276188 0
1 -2.09996 0.251188 0
1 -2.09996 0.226188 0
1 -2.09996 0.201188 0
1 -2.09996 0.176188 0
1 -2.09996 0.151188 0
1 -2.09996 0.126188 0
1 -2.09996 0.101188 0
1 -2.09996 0.076188 0
1 -2.09996 0.051188 0
1 -2.09996 0.026188 0
1 -2.09996 0.001188 0
1 -2.09996 -0.023812 0
1 -2.09996 -0.048812 0
1 -2.09996 -0.073812 0
1 -2.09996 -0.098812 0
1 -2.09996 -0.123812 0
1 -2.09996 -0.148812 0
1 -2.09996 -0.173812 0
1 -2.09996 -0.198812 0
1 -2.09996 -0.223812 0
1 -2.09996 -0.248812 0
1 -2.09996 -0.273812 0
1 -2.09996 -0.298812 0
1 -2.09996 -0.323812 0
1 -2.09996 -0.348812 0
1 -2.09996 -0.373812 0
1 -2.09996 -0.398812 0
1 -2.09996 -0.423812 0
1 -0.44996 -2.22381 0
1 -0.44996 -2.19881 0
1 -0.44996 -2.17381 0
1 -0.44996 -2.14881 0
1 -0.44996 -2.12381 0
1 -2.22496 0.451188 0
1 -2.19996 0.451188 0
1 -2.17496 0.451188 0
1 -2.14996 0.451188 0
1 -2.12496 0.451188 0
1 -0.42496 -2.09881 0
1 -0.39996 -2.09881 0
1 -0.37496 -2.09881 0
1 -0.34996 -2.09881 0
1 -0.32496 -2.09881 0
1 -0.29996 -2.09881 0
1 -0.27496 -2.09881 0
1 -0.24996 -2.09881 0
1 -0.22496 -2.09881 0
1 -0.19996 -2.09881 0
1 -0.17496 -2.09881 0
1 -0.14996 -2.09881 0
1 -0.12496 -2.09881 0
1 -0.09996 -2.09881 0
1 -0.07496 -2.09881 0
1 -0.04996 -2.09881 0
1 -0.02496 -2.09881 0
1 4e-05 -2.09881 0
1 0.02504 -2.09881 0
1 0.05004 -2.09881 0
1 0.07504 -2.09881 0
1 0.10004 -2.09881 0
1 0.12504 -2.09881 0
1 0.15004 -2.09881 0
1 0.17504 -2.09881 0
1 0.20004 -2.09881 0
1 0.22504 -2.09881 0
1 0.25004 -2.09881 0
1 0.27504 -2.09881 0
1 0.30004 -2.09881 0
1 0.32504 -2.09881 0
1 0.35004 -2.09881 0
1 0.37504 -2.09881 0
1 0.40004 -2.09881 0
1 0.42504 -2.09881 0
1 -2.24996 0.876188 0
1 -2.24996 0.851188 0
1 -2.24996 0.826188 0
1 -2.24996 0.801188 0
1 -2.24996 0.776188 0
1 -2.24996 0.751188 0
1 -2.24996 0.726188 0
1 -2.24996 0.701188 0
1 -2.24996 0.676188 0
1 -2.24996 0.651188 0
1 -2.24996 0.626188 0
1 -2.24996 0.601188 0
1 -2.24996 0.576188 0
1 -2.24996 0.551188 0
1 -2.24996 0.526188 0
1 -2.24996 0.501188 0
1 -2.24996 0.476188 0
1 0.45004 -2.12381 0
1 0.45004 -2.14881 0
1 0.45004 -2.17381 0
1 0.45004 -2.19881 0
1 0.45004 -2.22381 0
1 -2.12496 0.901188 0
1 -2.14996 0.901188 0
1 -2.17496 0.901188 0
1 -2.19996 0.901188 0
1 -2.22496 0.901188 0
1 0.47504 -2.24881 0
1 0.50004 -2.24881 0
1 0.52504 -2.24881 0
1 0.55004 -2.24881 0
1 0.57504 -2.24881 0
1 0.60004 -2.24881 0
1 0.62504 -2.24881 0
1 0.65004 -2.24881 0
1 0.67504 -2.24881 0
1 0.70004 -2.24881 0
1 0.72504 -2.24881 0
1 0.75004 -2.24881 0
1 0.77504 -2.24881 0
1 0.80004 -2.24881 0
1 0.82504 -2.24881 0
1 0.85004 -2.24881 0
1 0.87504 -2.24881 0
1 -2.09996 1.77619 0
1 -2.09996 1.75119 0
1 -2.09996 1.72619 0
1 -2.09996 1.70119 0
1 -2.09996 1.67619 0
1 -2.09996 1.65119 0
1 -2.09996 1.62619 0
1 -2.09996 1.60119 0
1 -2.09996 1.57619 0
1 -2.09996 1.55119 0
1 -2.09996 1.52619 0
1 -2.09996 1.50119 0
1 -2.09996 1.47619 0
1 -2.09996 1.45119 0
1 -2.09996 1.42619 0
1 -2.09996 1.40119 0
1 -2.09996 1.37619 0
1 -2.09996 1.35119 0
1 -2.09996 1.32619 0
1 -2.09996 1.30119 0
1 -2.09996 1.27619 0
1 -2.09996 1.25119 0
1 -2.09996 1.22619 0
1 -2.09996 1.20119 0
1 -2.09996 1.17619 0
1 -2.09996 1.15119 0
1 -2.09996 1.12619 0
1 -2.09996 1.10119 0
1 -2.09996 1.07619 0
1 -2.09996 1.05119 0
1 -2.09996 1.02619 0
1 -2.09996 1.00119 0
1 -2.09996 0.976188 0
1 -2.09996 0.951188 0
1 -2.09996 0.926188 0
1 0.90004 -2.22381 0
1 0.90004 -2.19881 0
1 0.90004 -2.17381 0
1 0.90004 -2.14881 0
1 0.90004 -2.12381 0
1 -2.22496 1.80119 0
1 -2.19996 1.80119 0
1 -2.17496 1.80119 0
1 -2.14996 1.80119 0
1 -2.12496 1.80119 0
1 0.92504 -2.09881 0
1 0.95004 -2.09881 0
1 0.97504 -2.09881 0
1 1.00004 -2.09881 0
1 1.02504 -2.09881 0
1 1.05004 -2.09881 0
1 1.07504 -2.09881 0
1 1.10004 -2.09881 0
1 1.12504 -2.09881 0
1 1.15004 -2.09881 0
1 1.17504 -2.09881 0
1 1.20004 -2.09881 0
1 1.22504 -2.09881 0
1 1.25004 -2.09881 0
1 1.27504 -2.09881 0
1 1.30004 -2.09881 0
1 1.32504 -2.09881 0
1 1.35004 -2.09881 0
1 1.37504 -2.09881 0
1 1.40004 -2.09881 0
1 1.42504 -2.09881 0
1 1.45004 -2.09881 0
1 1.47504 -2.09881 0
1 1.50004 -2.09881 0
1 1.52504 -2.09881 0
1 1.55004 -2.09881 0
1 1.57504 -2.09881 0
1 1.60004 -2.09881 0
1 1.62504 -2.09881 0
1 1.65004 -2.09881 0
1 1.67504 -2.09881 0
1 1.70004 -2.09881 0
1 1.72504 -2.09881 0
1 1.75004 -2.09881 0
1 1.77504 -2.09881 0
1 -2.24996 2.22619 0
1 -2.24996 2.20119 0
1 -2.24996 2.17619 0
1 -2.24996 2.15119 0
1 -2.24996 2.12619 0
1 -2.24996 2.10119 0
1 -2.24996 2.07619 0
1 -2.24996 2.05119 0
1 -2.24996 2.02619 0
1 -2.24996 2.00119 0
1 -2.24996 1.97619 0
1 -2.24996 1.95119 0
1 -2.24996 1.92619 0
1 -2.24996 1.90119 0
1 -2.24996 1.87619 0
1 -2.24996 1.85119 0
1 -2.24996 1.82619 0
1 1.80004 -2.12381 0
1 1.80004 -2.14881 0
1 1.80004 -2.17381 0
1 1.80004 -2.19881 0
1 1.80004 -2.22381 0
1 -1.82496 2.25119 0
1 -1.84996 2.25119 0
1 -1.87496 2.25119 0
1 -1.89996 2.25119 0
1 -1.92496 2.25119 0
1 -1.94996 2.25119 0
1 -1.97496 2.25119 0
1 -1.99996 2.25119 0
1 -2.02496 2.25119 0
1 -2.04996 2.25119 0
1 -2.07496 2.25119 0
1 -2.09996 2.25119 0
1 -2.12496 2.25119 0
1 -2.14996 2.25119 0
1 -2.17496 2.25119 0
1 -2.19996 2.25119 0
1 -2.22496 2.25119 0
1 1.82504 -2.24881 0
1 1.85004 -2.24881 0
1 1.87504 -2.24881 0
1 1.90004 -2.24881 0
1 1.92504 -2.24881 0
1 1.95004 -2.24881 0
1 1.97504 -2.24881 0
1 2.00004 -2.24881 0
1 2.02504 -2.24881 0
1 2.05004 -2.24881 0
1 2.07504 -2.24881 0
1 2.10004 -2.24881 0
1 2.12504 -2.24881 0
1 2.15004 -2.24881 0
1 2.17504 -2.24881 0
1 2.20004 -2.24881 0
1 2.22504 -2.24881 0
1 -1.79996 2.12619 0
1 -1.79996 2.15119 0
1 -1.79996 2.17619 0
1 -1.79996 2.20119 0
1 -1.79996 2.22619 0
1 2.25004 -2.22381 0
1 2.25004 -2.19881 0
1 2.25004 -2.17381 0
1 2.25004 -2.14881 0
1 2.25004 -2.12381 0
1 2.25004 -2.09881 0
1 2.25004 -2.07381 0
1 2.25004 -2.04881 0
1 2.25004 -2.02381 0
1 2.25004 -1.99881 0
1 2.25004 -1.97381 0
1 2.25004 -1.94881 0
1 2.25004 -1.92381 0
1 2.25004 -1.89881 0
1 2.25004 -1.87381 0
1 2.25004 -1.84881 0
1 2.25004 -1.82381 0
1 -0.92496 2.10119 0
1 -0.94996 2.10119 0
1 -0.97496 2.10119 0
1 -0.99996 2.10119 0
1 -1.02496 2.10119 0
1 -1.04996 2.10119 0
1 -1.07496 2.10119 0
1 -1.09996 2.10119 0
1 -1.12496 2.10119 0
1 -1.14996 2.10119 0
1 -1.17496 2.10119 0
1 -1.19996 2.10119 0
1 -1.22496 2.10119 0
1 -1.24996 2.10119 0
1 -1.27496 2.10119 0
1 -1.29996 2.10119 0
1 -1.32496 2.10119 0