14926
 Atoms. Timestep: 5000000
4 -1.8147 -2.05126 -5.78103e-18
4 -1.58876 -1.8539 1.63734e-16
4 -1.78613 -1.62796 5.68269e-18
4 -2.01207 -1.82533 -1.63832e-16
4 -0.825493 -1.88956 -6.06463e-17
4 -0.5807 -2.06299 -3.21725e-17
4 -0.407274 -1.8182 6.06639e-17
4 -0.652066 -1.64477 3.21901e-17
4 0.576322 -2.06848 -1.57019e-17
4 0.821956 -1.89625 -5.49521e-17
4 0.649724 -1.65062 1.57168e-17
4 0.40409 -1.82285 5.49671e-17
4 1.58635 -1.84997 -7.41521e-17
4 1.81205 -2.0476 5.04495e-17
4 2.00969 -1.8219 7.411e-17
4 1.78398 -1.62427 -5.04915e-17
4 -2.07895 -0.668817 -1.26006e-16
4 -1.82388 -0.826746 2.33823e-17
4 -1.66595 -0.57168 1.2607e-16
4 -1.92102 -0.413751 -2.33183e-17
4 -0.677526 -0.827483 -2.26163e-17
4 -0.418163 -0.676715 -9.31581e-17
4 -0.568931 -0.417352 2.2607e-17
4 -0.828294 -0.56812 9.31488e-17
4 0.423275 -0.681119 8.82261e-18
4 0.683204 -0.830909 -4.72948e-18
4 0.832994 -0.570981 -8.82315e-18
4 0.573066 -0.42119 4.72893e-18
4 1.83002 -0.823446 -6.34168e-17
4 2.08576 -0.666621 -1.28211e-18
4 1.92894 -0.410875 6.3386e-17
4 1.67319 -0.567701 1.25136e-18
4 -1.92596 0.411422 2.70056e-17
4 -1.67135 0.570086 -6.94108e-17
4 -1.83002 0.824695 -2.70171e-17
4 -2.08462 0.666032 6.93994e-17
4 -0.833312 0.573517 3.90732e-32
4 -0.573659 0.423249 -5.64529e-32
4 -0.423391 0.682901 -3.02603e-32
4 -0.683043 0.83317 4.83177e-32
4 0.569004 0.420991 3.55234e-17
4 0.828551 0.571441 -3.51297e-17
4 0.678101 0.830988 -3.55241e-17
4 0.418554 0.680538 3.5129e-17
4 1.66805 0.573423 3.81752e-17
4 1.92422 0.417297 6.62202e-18
4 2.08035 0.673471 -3.81647e-17
4 1.82418 0.829596 -6.61148e-18
4 -2.00679 1.82128 -4.06399e-17
4 -1.78176 1.62288 -6.24337e-18
4 -1.58336 1.8479 4.06522e-17
4 -1.80839 2.04631 6.25574e-18
4 -0.647536 1.6511 3.1292e-18
4 -0.403548 1.82566 -5.69863e-18
4 -0.578102 2.06965 -3.13223e-18
4 -0.822091 1.89509 5.69561e-18
4 0.403975 1.82282 -9.23647e-17
4 0.647754 1.64797 1.85278e-17
4 0.822602 1.89175 9.23669e-17
4 0.578823 2.0666 -1.85257e-17
4 1.78172 1.63145 3.63251e-17
4 2.00702 1.82955 1.26584e-16
4 1.80892 2.05484 -3.62658e-17
4 1.58363 1.85675 -1.26525e-16
1 -2.11773 -1.81778 0
1 -1.82187 -2.15709 0
1 -2.0064 -1.71685 0
1 -1.48285 -1.86146 0
1 -2.05541 -0.77448 0
1 -1.58406 -1.75086 0
1 -2.18197 -0.693519 0
1 -0.841882 -1.78586 0
1 -1.94541 -0.310482 0
1 -0.930057 -1.90739 0
1 -1.81903 -0.391425 0
1 -0.562393 -2.16733 0
1 -1.82417 0.389182 0
1 -0.473647 -2.04606 0
1 -1.95027 0.308094 0
1 0.469505 -2.05123 0
1 -2.18778 0.690286 0
1 0.557684 -2.1728 0
1 -2.0616 0.771678 0
1 0.926435 -1.91471 0
1 -2.00142 1.71264 0
1 0.839052 -1.79273 0
1 -2.11245 1.81402 0
1 1.58219 -1.74651 0
1 -1.81506 2.15216 0
1 1.48047 -1.85706 0
1 -1.47745 1.85463 0
1 1.81909 -2.15343 0
1 -1.57958 1.74443 0
1 2.11533 -1.8143 0
1 -0.838133 1.79147 0
1 2.00394 -1.71327 0
1 -0.926738 1.91256 0
1 2.06198 -0.772022 0
1 -0.560449 2.17413 0
1 2.18876 -0.691596 0
1 -0.471107 2.05342 0
1 1.95398 -0.30772 0
1 0.471654 2.0503 0
1 1.82727 -0.387868 0
1 0.561122 2.17104 0
1 1.82238 0.394216 0
1 0.927266 1.90897 0
1 1.94934 0.31421 0
1 0.838355 1.78798 0
1 2.18319 0.698903 0
1 1.57919 1.75361 0
1 2.05606 0.778966 0
1 1.47768 1.86398 0
1 2.0017 1.72108 0
1 1.81574 2.16069 0
1 2.11272 1.82235 0
1 -1.92542 -0.848455 0
1 -1.88969 -1.62324 0
1 -1.79928 -0.929859 0
1 -1.77843 -1.52223 0
1 -1.71799 -0.803655 0
1 -1.67676 -1.6328 0
1 -0.78279 -0.801547 0
1 -0.758161 -1.66153 0
1 -0.704816 -0.929886 0
1 -0.670037 -1.54023 0
1 -0.575794 -0.852921 0
1 -0.550248 -1.63065 0
1 -0.423545 -1.71036 0
1 -0.444279 -0.780874 0
1 -0.302895 -1.79989 0
1 -0.315615 -0.703864 0
1 -0.392079 -1.92069 0
1 -0.393417 -0.575442 0
1 0.387995 -1.92564 0
1 0.39841 -0.580247 0
1 0.299786 -1.80398 0
1 0.320836 -0.708681 0
1 0.42062 -1.7147 0
1 0.449916 -0.784947 0
1 0.547825 -1.6356 0
1 0.581597 -0.856661 0
1 0.668245 -1.54612 0
1 0.710862 -0.933203 0
1 0.755901 -1.66777 0
1 0.78802 -0.804445 0
1 1.67499 -1.62933 0
1 1.72377 -0.800044 0
1 1.77637 -1.5186 0
1 1.80495 -0.926421 0
1 1.88709 -1.62006 0
1 1.93179 -0.845967 0
1 -1.69406 0.464038 0
1 -1.68917 -0.466052 0
1 -1.56815 0.545812 0
1 -1.56286 -0.547102 0
1 -1.64987 0.671835 0
1 -1.64456 -0.673172 0
1 -0.85792 0.674278 0
1 -0.853118 -0.669128 0
1 -0.935707 0.545944 0
1 -0.930736 -0.540701 0
1 -0.807015 0.468844 0
1 -0.802312 -0.463059 0
1 -1.88491 1.61901 0
1 -1.93179 0.84641 0
1 -1.7746 1.51714 0
1 -1.80567 0.927879 0
1 -1.67276 1.62751 0
1 -1.72383 0.802049 0
1 -0.753912 1.6672 0
1 -0.788195 0.806871 0
1 -0.664909 1.54646 0
1 -0.710641 0.935468 0
1 -0.545098 1.63711 0
1 -0.581573 0.858635 0
1 -0.669954 -0.392562 0
1 -0.674742 0.398552 0
1 -0.541515 -0.314907 0
1 -0.546211 0.320842 0
1 -0.463939 -0.443311 0
1 -0.469027 0.449538 0
1 0.468298 -0.447722 0
1 0.463808 0.447059 0
1 0.545259 -0.318869 0
1 0.541474 0.3186 0
1 0.673782 -0.396443 0
1 0.670164 0.39598 0
1 0.806481 -0.46605 0
1 0.802425 0.466578 0
1 0.935287 -0.543184 0
1 0.930972 0.543945 0
1 0.85795 -0.671949 0
1 0.853575 0.672577 0
1 1.65104 -0.66897 0
1 1.64601 0.67449 0
1 1.57017 -0.542557 0
1 1.56511 0.548052 0
1 1.6967 -0.461871 0
1 1.69204 0.467934 0
1 -0.44985 0.786957 0
1 -0.419071 1.71755 0
1 -0.320933 0.71027 0
1 -0.299065 1.80784 0
1 -0.398622 0.581768 0
1 -0.388481 1.92849 0
1 0.393762 0.579644 0
1 0.389415 1.92538 0
1 0.316059 0.708005 0
1 0.299501 1.8051 0
1 0.444827 0.784802 0
1 0.419645 1.71495 0
1 0.576593 0.856517 0
1 0.545529 1.63444 0
1 0.705585 0.93337 0
1 0.664994 1.54333 0
1 0.783131 0.804886 0
1 0.754028 1.66408 0
1 1.71817 0.805711 0
1 1.67238 1.63591 0
1 1.79871 0.932469 0
1 1.77442 1.5257 0
1 1.92552 0.852038 0
1 1.88521 1.62707 0
4 -1.79587 -2.03482 8.34523e-18
4 -1.77705 -2.01837 2.24715e-17
4 -1.75822 -2.00192 3.65977e-17
4 -1.73939 -1.98548 5.0724e-17
4 -1.72056 -1.96903 6.48502e-17
4 -1.70173 -1.95258 7.89765e-17
4 -1.6829 -1.93613 9.31028e-17
4 -1.66408 -1.91969 1.07229e-16
4 -1.64525 -1.90324 1.21355e-16
4 -1.62642 -1.88679 1.35482e-16
4 -1.60759 -1.87035 1.49608e-16
4 -1.60521 -1.83507 1.50563e-16
4 -1.62166 -1.81624 1.37392e-16
4 -1.63811 -1.79742 1.24221e-16
4 -1.65455 -1.77859 1.1105e-16
4 -1.671 -1.75976 9.78793e-17
4 -1.68745 -1.74093 8.47084e-17
4 -1.70389 -1.7221 7.15374e-17
4 -1.72034 -1.70327 5.83665e-17
4 -1.73679 -1.68445 4.51955e-17
4 -1.75323 -1.66562 3.20246e-17
4 -1.76968 -1.64679 1.88536e-17
4 -1.80496 -1.64441 -8.44356e-18
4 -1.82378 -1.66086 -2.25698e-17
4 -1.84261 -1.6773 -3.66961e-17
4 -1.86144 -1.69375 -5.08223e-17
4 -1.88027 -1.7102 -6.49486e-17
4 -1.8991 -1.72664 -7.90748e-17
4 -1.91792 -1.74309 -9.32011e-17
4 -1.93675 -1.75954 -1.07327e-16
4 -1.95558 -1.77599 -1.21454e-16
4 -1.97441 -1.79243 -1.3558e-16
4 -1.99324 -1.80888 -1.49706e-16
4 -1.99562 -1.84415 -1.50661e-16
4 -1.97917 -1.86298 -1.3749e-16
4 -1.96272 -1.88181 -1.2432e-16
4 -1.94628 -1.90064 -1.11149e-16
4 -1.92983 -1.91947 -9.79776e-17
4 -1.91338 -1.93829 -8.48067e-17
4 -1.89694 -1.95712 -7.16357e-17
4 -1.88049 -1.97595 -5.84648e-17
4 -1.86404 -1.99478 -4.52939e-17
4 -1.8476 -2.01361 -3.21229e-17
4 -1.83115 -2.03244 -1.8952e-17
4 -0.805093 -1.90401 -5.82735e-17
4 -0.784694 -1.91847 -5.59007e-17
4 -0.764295 -1.93292 -5.35278e-17
4 -0.743895 -1.94737 -5.1155e-17
4 -0.723496 -1.96182 -4.87822e-17
4 -0.703097 -1.97628 -4.64094e-17
4 -0.682697 -1.99073 -4.40366e-17
4 -0.662298 -2.00518 -4.16638e-17
4 -0.641898 -2.01963 -3.92909e-17
4 -0.621499 -2.03408 -3.69181e-17
4 -0.6011 -2.04854 -3.45453e-17
4 -0.566248 -2.04259 -2.44361e-17
4 -0.551796 -2.02219 -1.66998e-17
4 -0.537344 -2.00179 -8.96339e-18
4 -0.522892 -1.98139 -1.22702e-18
4 -0.508439 -1.96099 6.50934e-18
4 -0.493987 -1.94059 1.42457e-17
4 -0.479535 -1.92019 2.19821e-17
4 -0.465083 -1.89979 2.97184e-17
4 -0.45063 -1.87939 3.74548e-17
4 -0.436178 -1.859 4.51912e-17
4 -0.421726 -1.8386 5.29275e-17
4 -0.427673 -1.80374 5.82911e-17
4 -0.448073 -1.78929 5.59183e-17
4 -0.468472 -1.77484 5.35455e-17
4 -0.488871 -1.76039 5.11726e-17
4 -0.509271 -1.74594 4.87998e-17
4 -0.52967 -1.73148 4.6427e-17
4 -0.550069 -1.71703 4.40542e-17
4 -0.570469 -1.70258 4.16814e-17
4 -0.590868 -1.68813 3.93085e-17
4 -0.611267 -1.67367 3.69357e-17
4 -0.631667 -1.65922 3.45629e-17
4 -0.666518 -1.66517 2.44537e-17
4 -0.68097 -1.68557 1.67174e-17
4 -0.695423 -1.70597 8.98099e-18
4 -0.709875 -1.72637 1.24463e-18
4 -0.724327 -1.74677 -6.49174e-18
4 -0.738779 -1.76717 -1.42281e-17
4 -0.753232 -1.78757 -2.19645e-17
4 -0.767684 -1.80796 -2.97008e-17
4 -0.782136 -1.82836 -3.74372e-17
4 -0.796588 -1.84876 -4.51736e-17
4 -0.81104 -1.86916 -5.29099e-17
4 0.596792 -2.05413 -1.89727e-17
4 0.617261 -2.03978 -2.22436e-17
4 0.637731 -2.02542 -2.55144e-17
4 0.6582 -2.01107 -2.87853e-17
4 0.67867 -1.99672 -3.20561e-17
4 0.699139 -1.98237 -3.5327e-17
4 0.719609 -1.96801 -3.85979e-17
4 0.740078 -1.95366 -4.18687e-17
4 0.760548 -1.93931 -4.51396e-17
4 0.781017 -1.92496 -4.84104e-17
4 0.801487 -1.9106 -5.16813e-17
4 0.807604 -1.87578 -4.9063e-17
4 0.793251 -1.85531 -4.3174e-17
4 0.778898 -1.83484 -3.72849e-17
4 0.764546 -1.81437 -3.13958e-17
4 0.750193 -1.7939 -2.55067e-17
4 0.73584 -1.77343 -1.96177e-17
4 0.721488 -1.75296 -1.37286e-17
4 0.707135 -1.73249 -7.8395e-18
4 0.692782 -1.71202 -1.95043e-18
4 0.67843 -1.69155 3.93865e-18
4 0.664077 -1.67109 9.82773e-18
4 0.629255 -1.66497 1.89877e-17
4 0.608785 -1.67932 2.22585e-17
4 0.588316 -1.69367 2.55294e-17
4 0.567846 -1.70803 2.88002e-17
4 0.547377 -1.72238 3.20711e-17
4 0.526907 -1.73673 3.53419e-17
4 0.506438 -1.75108 3.86128e-17
4 0.485968 -1.76544 4.18836e-17
4 0.465499 -1.77979 4.51545e-17
4 0.445029 -1.79414 4.84253e-17
4 0.42456 -1.8085 5.16962e-17
4 0.418443 -1.84332 4.9078e-17
4 0.432795 -1.86379 4.31889e-17
4 0.447148 -1.88426 3.72998e-17
4 0.461501 -1.90473 3.14107e-17
4 0.475853 -1.9252 2.55217e-17
4 0.490206 -1.94567 1.96326e-17
4 0.504559 -1.96613 1.37435e-17
4 0.518911 -1.9866 7.85444e-18
4 0.533264 -2.00707 1.96536e-18
4 0.547617 -2.02754 -3.92372e-18
4 0.561969 -2.04801 -9.8128e-18
4 1.60516 -1.86644 -6.37686e-17
4 1.62397 -1.88291 -5.33851e-17
4 1.64278 -1.89938 -4.30017e-17
4 1.66159 -1.91585 -3.26182e-17
4 1.68039 -1.93232 -2.22347e-17
4 1.6992 -1.94879 -1.18513e-17
4 1.71801 -1.96526 -1.46782e-18
4 1.73682 -1.98172 8.91565e-18
4 1.75563 -1.99819 1.92991e-17
4 1.77444 -2.01466 2.96826e-17
4 1.79325 -2.03113 4.0066e-17
4 1.82852 -2.02879 5.24212e-17
4 1.84499 -2.00998 5.43929e-17
4 1.86146 -1.99118 5.63646e-17
4 1.87793 -1.97237 5.83363e-17
4 1.8944 -1.95356 6.03081e-17
4 1.91087 -1.93475 6.22798e-17
4 1.92734 -1.91594 6.42515e-17
4 1.94381 -1.89713 6.62232e-17
4 1.96028 -1.87832 6.81949e-17
4 1.97675 -1.85952 7.01666e-17
4 1.99322 -1.84071 7.21383e-17
4 1.99088 -1.80543 6.37266e-17
4 1.97207 -1.78896 5.33431e-17
4 1.95326 -1.77249 4.29596e-17
4 1.93445 -1.75602 3.25762e-17
4 1.91564 -1.73955 2.21927e-17
4 1.89683 -1.72308 1.18093e-17
4 1.87803 -1.70661 1.4258e-18
4 1.85922 -1.69014 -8.95767e-18
4 1.84041 -1.67368 -1.93411e-17
4 1.8216 -1.65721 -2.97246e-17
4 1.80279 -1.64074 -4.01081e-17
4 1.76751 -1.64308 -5.24632e-17
4 1.75104 -1.66188 -5.44349e-17
4 1.73457 -1.68069 -5.64066e-17
4 1.71811 -1.6995 -5.83784e-17
4 1.70164 -1.71831 -6.03501e-17
4 1.68517 -1.73712 -6.23218e-17
4 1.6687 -1.75593 -6.42935e-17
4 1.65223 -1.77474 -6.62652e-17
4 1.63576 -1.79354 -6.82369e-17
4 1.61929 -1.81235 -7.02086e-17
4 1.60282 -1.83116 -7.21803e-17
4 -2.05769 -0.681978 -1.13557e-16
4 -2.03644 -0.695138 -1.01108e-16
4 -2.01518 -0.708299 -8.86589e-17
4 -1.99392 -0.72146 -7.62099e-17
4 -1.97267 -0.734621 -6.37609e-17
4 -1.95141 -0.747781 -5.13118e-17
4 -1.93016 -0.760942 -3.88628e-17
4 -1.9089 -0.774103 -2.64138e-17
4 -1.88765 -0.787264 -1.39648e-17
4 -1.86639 -0.800424 -1.51573e-18
4 -1.84514 -0.813585 1.09333e-17
4 -1.81072 -0.80549 3.19396e-17
4 -1.79756 -0.784235 4.04969e-17
4 -1.7844 -0.76298 4.90542e-17
4 -1.77124 -0.741724 5.76116e-17
4 -1.75808 -0.720469 6.61689e-17
4 -1.74492 -0.699213 7.47262e-17
4 -1.73176 -0.677958 8.32835e-17
4 -1.7186 -0.656702 9.18408e-17
4 -1.70543 -0.635447 1.00398e-16
4 -1.69227 -0.614191 1.08955e-16
4 -1.67911 -0.592936 1.17513e-16
4 -1.68721 -0.55852 1.13621e-16
4 -1.70846 -0.545359 1.01172e-16
4 -1.72972 -0.532198 8.87229e-17
4 -1.75097 -0.519037 7.62739e-17
4 -1.77223 -0.505877 6.38249e-17
4 -1.79348 -0.492716 5.13758e-17
4 -1.81474 -0.479555 3.89268e-17
4 -1.836 -0.466394 2.64778e-17
4 -1.85725 -0.453234 1.40288e-17
4 -1.87851 -0.440073 1.57974e-18
4 -1.89976 -0.426912 -1.08693e-17
4 -1.93418 -0.435007 -3.18756e-17
4 -1.94734 -0.456262 -4.04329e-17
4 -1.9605 -0.477518 -4.89902e-17
4 -1.97366 -0.498773 -5.75475e-17
4 -1.98682 -0.520029 -6.61049e-17
4 -1.99998 -0.541284 -7.46622e-17
4 -2.01314 -0.562539 -8.32195e-17
4 -2.0263 -0.583795 -9.17768e-17
4 -2.03946 -0.60505 -1.00334e-16
4 -2.05263 -0.626306 -1.08891e-16
4 -2.06579 -0.647561 -1.17449e-16
4 -0.655912 -0.814919 -2.84947e-17
4 -0.634299 -0.802355 -3.43732e-17
4 -0.612685 -0.789791 -4.02517e-17
4 -0.591072 -0.777227 -4.61302e-17
4 -0.569458 -0.764663 -5.20087e-17
4 -0.547845 -0.752099 -5.78872e-17
4 -0.526231 -0.739535 -6.37657e-17
4 -0.504617 -0.726971 -6.96441e-17
4 -0.483004 -0.714407 -7.55226e-17
4 -0.46139 -0.701843 -8.14011e-17
4 -0.439777 -0.689279 -8.72796e-17
4 -0.430727 -0.655101 -8.3511e-17
4 -0.443291 -0.633488 -7.38639e-17
4 -0.455855 -0.611874 -6.42168e-17
4 -0.468419 -0.59026 -5.45697e-17
4 -0.480983 -0.568647 -4.49226e-17
4 -0.493547 -0.547033 -3.52755e-17
4 -0.506111 -0.52542 -2.56284e-17
4 -0.518675 -0.503806 -1.59814e-17
4 -0.531239 -0.482193 -6.33426e-18
4 -0.543803 -0.460579 3.31283e-18
4 -0.556367 -0.438966 1.29599e-17
4 -0.590545 -0.429916 2.84855e-17
4 -0.612158 -0.44248 3.4364e-17
4 -0.633772 -0.455044 4.02425e-17
4 -0.655385 -0.467608 4.6121e-17
4 -0.676999 -0.480172 5.19994e-17
4 -0.698613 -0.492736 5.78779e-17
4 -0.720226 -0.5053 6.37564e-17
4 -0.74184 -0.517864 6.96349e-17
4 -0.763453 -0.530428 7.55134e-17
4 -0.785067 -0.542992 8.13919e-17
4 -0.80668 -0.555556 8.72703e-17
4 -0.81573 -0.589733 8.35017e-17
4 -0.803166 -0.611347 7.38547e-17
4 -0.790602 -0.632961 6.42076e-17
4 -0.778038 -0.654574 5.45605e-17
4 -0.765474 -0.676188 4.49134e-17
4 -0.75291 -0.697801 3.52663e-17
4 -0.740346 -0.719415 2.56192e-17
4 -0.727782 -0.741028 1.59721e-17
4 -0.715218 -0.762642 6.32501e-18
4 -0.702654 -0.784255 -3.32208e-18
4 -0.69009 -0.805869 -1.29692e-17
4 0.444936 -0.693601 7.69327e-18
4 0.466597 -0.706084 6.56393e-18
4 0.488257 -0.718566 5.43459e-18
4 0.509918 -0.731049 4.30525e-18
4 0.531579 -0.743532 3.17591e-18
4 0.553239 -0.756014 2.04656e-18
4 0.5749 -0.768497 9.17225e-19
4 0.596561 -0.780979 -2.12115e-19
4 0.618221 -0.793462 -1.34146e-18
4 0.639882 -0.805944 -2.4708e-18
4 0.661543 -0.818427 -3.60014e-18
4 0.695686 -0.809249 -5.07062e-18
4 0.708169 -0.787588 -5.41175e-18
4 0.720651 -0.765927 -5.75289e-18
4 0.733134 -0.744267 -6.09403e-18
4 0.745616 -0.722606 -6.43517e-18
4 0.758099 -0.700945 -6.77631e-18
4 0.770581 -0.679285 -7.11745e-18
4 0.783064 -0.657624 -7.45859e-18
4 0.795547 -0.635963 -7.79973e-18
4 0.808029 -0.614302 -8.14087e-18
4 0.820512 -0.592642 -8.48201e-18
4 0.811333 -0.558498 -7.69381e-18
4 0.789673 -0.546016 -6.56447e-18
4 0.768012 -0.533533 -5.43513e-18
4 0.746351 -0.521051 -4.30579e-18
4 0.724691 -0.508568 -3.17645e-18
4 0.70303 -0.496086 -2.04711e-18
4 0.681369 -0.483603 -9.1777e-19
4 0.659709 -0.471121 2.1157e-19
4 0.638048 -0.458638 1.34091e-18
4 0.616387 -0.446155 2.47025e-18
4 0.594726 -0.433673 3.59959e-18
4 0.560583 -0.442851 5.07007e-18
4 0.548101 -0.464512 5.41121e-18
4 0.535618 -0.486172 5.75235e-18
4 0.523136 -0.507833 6.09349e-18
4 0.510653 -0.529494 6.43463e-18
4 0.49817 -0.551155 6.77577e-18
4 0.485688 -0.572815 7.11691e-18
4 0.473205 -0.594476 7.45805e-18
4 0.460723 -0.616137 7.79919e-18
4 0.44824 -0.637797 8.14033e-18
4 0.435758 -0.659458 8.48147e-18
4 1.85133 -0.810377 -5.82389e-17
4 1.87264 -0.797309 -5.3061e-17
4 1.89396 -0.78424 -4.78831e-17
4 1.91527 -0.771171 -4.27052e-17
4 1.93658 -0.758102 -3.75273e-17
4 1.95789 -0.745033 -3.23494e-17
4 1.9792 -0.731965 -2.71715e-17
4 2.00052 -0.718896 -2.19937e-17
4 2.02183 -0.705827 -1.68158e-17
4 2.04314 -0.692758 -1.16379e-17
4 2.06445 -0.679689 -6.45999e-18
4 2.0727 -0.645308 4.10691e-18
4 2.05963 -0.623996 9.49592e-18
4 2.04656 -0.602684 1.48849e-17
4 2.03349 -0.581372 2.02739e-17
4 2.02042 -0.56006 2.56629e-17
4 2.00735 -0.538748 3.1052e-17
4 1.99428 -0.517436 3.6441e-17
4 1.98121 -0.496124 4.183e-17
4 1.96815 -0.474812 4.7219e-17
4 1.95508 -0.453499 5.2608e-17
4 1.94201 -0.432187 5.7997e-17
4 1.90763 -0.423944 5.82081e-17
4 1.88631 -0.437013 5.30302e-17
4 1.865 -0.450082 4.78524e-17
4 1.84369 -0.46315 4.26745e-17
4 1.82238 -0.476219 3.74966e-17
4 1.80107 -0.489288 3.23187e-17
4 1.77975 -0.502357 2.71408e-17
4 1.75844 -0.515426 2.19629e-17
4 1.73713 -0.528494 1.6785e-17
4 1.71582 -0.541563 1.16071e-17
4 1.69451 -0.554632 6.42925e-18
4 1.68626 -0.589013 -4.13765e-18
4 1.69933 -0.610325 -9.52666e-18
4 1.7124 -0.631637 -1.49157e-17
4 1.72547 -0.652949 -2.03047e-17
4 1.73854 -0.674261 -2.56937e-17
4 1.75161 -0.695574 -3.10827e-17
4 1.76468 -0.716886 -3.64717e-17
4 1.77774 -0.738198 -4.18607e-17
4 1.79081 -0.75951 -4.72497e-17
4 1.80388 -0.780822 -5.26387e-17
4 1.81695 -0.802134 -5.80278e-17
4 -1.90474 0.424644 1.89709e-17
4 -1.88353 0.437866 1.09362e-17
4 -1.86231 0.451088 2.90148e-18
4 -1.84109 0.46431 -5.13322e-18
4 -1.81987 0.477532 -1.31679e-17
4 -1.79866 0.490754 -2.12026e-17
4 -1.77744 0.503976 -2.92373e-17
4 -1.75622 0.517198 -3.7272e-17
4 -1.735 0.53042 -4.53067e-17
4 -1.71379 0.543642 -5.33414e-17
4 -1.69257 0.556864 -6.13761e-17
4 -1.68457 0.591303 -6.5878e-17
4 -1.6978 0.612521 -6.23452e-17
4 -1.71102 0.633738 -5.88124e-17
4 -1.72424 0.654956 -5.52796e-17
4 -1.73746 0.676173 -5.17468e-17
4 -1.75068 0.697391 -4.82139e-17
4 -1.76391 0.718608 -4.46811e-17
4 -1.77713 0.739825 -4.11483e-17
4 -1.79035 0.761043 -3.76155e-17
4 -1.80357 0.78226 -3.40827e-17
4 -1.81679 0.803478 -3.05499e-17
4 -1.85123 0.811473 -1.89824e-17
4 -1.87245 0.798251 -1.09477e-17
4 -1.89367 0.785029 -2.91295e-18
4 -1.91489 0.771807 5.12175e-18
4 -1.9361 0.758585 1.31565e-17
4 -1.95732 0.745363 2.11912e-17
4 -1.97854 0.732141 2.92259e-17
4 -1.99975 0.718919 3.72606e-17
4 -2.02097 0.705697 4.52953e-17
4 -2.04219 0.692475 5.333e-17
4 -2.06341 0.679254 6.13647e-17
4 -2.0714 0.644814 6.58665e-17
4 -2.05818 0.623597 6.23337e-17
4 -2.04496 0.602379 5.88009e-17
4 -2.03174 0.581162 5.52681e-17
4 -2.01851 0.559944 5.17353e-17
4 -2.00529 0.538727 4.82025e-17
4 -1.99207 0.51751 4.46697e-17
4 -1.97885 0.496292 4.11368e-17
4 -1.96563 0.475075 3.7604e-17
4 -1.9524 0.453857 3.40712e-17
4 -1.93918 0.43264 3.05384e-17
4 -0.811674 0.560995 8.25831e-33
4 -0.790036 0.548473 -2.15784e-34
4 -0.768399 0.53595 -1.08084e-32
4 -0.746761 0.523428 -2.17862e-32
4 -0.725123 0.510905 -8.68988e-33
4 -0.703486 0.498383 -4.06764e-33
4 -0.681848 0.485861 -2.56381e-32
4 -0.66021 0.473338 -4.4127e-32
4 -0.638572 0.460816 -4.10455e-32
4 -0.616935 0.448293 -6.87789e-32
4 -0.595297 0.435771 -6.26159e-32
4 -0.561137 0.444886 -7.49419e-32
4 -0.548615 0.466524 -4.4127e-32
4 -0.536092 0.488162 -5.029e-32
4 -0.52357 0.509799 -5.64529e-32
4 -0.511047 0.531437 -5.029e-32
4 -0.498525 0.553075 -4.72085e-32
4 -0.486003 0.574713 -1.94751e-32
4 -0.47348 0.59635 -2.25566e-32
4 -0.460958 0.617988 -2.87195e-32
4 -0.448436 0.639626 -1.33121e-32
4 -0.435913 0.661263 -4.72085e-32
4 -0.445028 0.695423 -1.94751e-32
4 -0.466666 0.707946 -2.48677e-32
4 -0.488304 0.720468 -1.38899e-32
4 -0.509942 0.732991 9.02868e-33
4 -0.531579 0.745513 2.67472e-32
4 -0.553217 0.758035 1.44213e-32
4 -0.574855 0.770558 -7.14913e-33
4 -0.596492 0.78308 3.59917e-32
4 -0.61813 0.795603 4.83177e-32
4 -0.639768 0.808125 4.21547e-32
4 -0.661405 0.820647 2.98287e-32
4 -0.695566 0.811532 4.21547e-32
4 -0.708088 0.789894 5.44806e-32
4 -0.72061 0.768257 5.44806e-32
4 -0.733133 0.746619 1.75028e-32
4 -0.745655 0.724981 3.59917e-32
4 -0.758177 0.703343 3.59917e-32
4 -0.7707 0.681706 1.44213e-32
4 -0.783222 0.660068 4.21547e-32
4 -0.795745 0.63843 4.21547e-32
4 -0.808267 0.616793 2.67472e-32
4 -0.820789 0.595155 4.21547e-32
4 0.590633 0.433528 2.96356e-17
4 0.612261 0.446066 2.37479e-17
4 0.63389 0.458603 1.78601e-17
4 0.655519 0.471141 1.19724e-17
4 0.677148 0.483678 6.08463e-18
4 0.698777 0.496216 1.96875e-19
4 0.720406 0.508753 -5.69088e-18
4 0.742035 0.521291 -1.15786e-17
4 0.763664 0.533828 -1.74664e-17
4 0.785293 0.546366 -2.33541e-17
4 0.806922 0.558903 -2.92419e-17
4 0.816013 0.59307 -3.51625e-17
4 0.803476 0.614699 -3.51954e-17
4 0.790939 0.636328 -3.52283e-17
4 0.778401 0.657957 -3.52611e-17
4 0.765864 0.679585 -3.5294e-17
4 0.753326 0.701214 -3.53269e-17
4 0.740789 0.722843 -3.53597e-17
4 0.728251 0.744472 -3.53926e-17
4 0.715714 0.766101 -3.54255e-17
4 0.703176 0.78773 -3.54583e-17
4 0.690639 0.809359 -3.54912e-17
4 0.656472 0.818451 -2.96363e-17
4 0.634843 0.805913 -2.37485e-17
4 0.613214 0.793376 -1.78608e-17
4 0.591585 0.780838 -1.1973e-17
4 0.569956 0.768301 -6.08528e-18
4 0.548327 0.755763 -1.97523e-19
4 0.526698 0.743226 5.69023e-18
4 0.50507 0.730688 1.1578e-17
4 0.483441 0.718151 1.74657e-17
4 0.461812 0.705613 2.33535e-17
4 0.440183 0.693076 2.92413e-17
4 0.431091 0.658909 3.51619e-17
4 0.443629 0.63728 3.51947e-17
4 0.456166 0.615651 3.52276e-17
4 0.468704 0.594022 3.52605e-17
4 0.481241 0.572394 3.52933e-17
4 0.493779 0.550765 3.53262e-17
4 0.506316 0.529136 3.53591e-17
4 0.518854 0.507507 3.53919e-17
4 0.531391 0.485878 3.54248e-17
4 0.543929 0.464249 3.54577e-17
4 0.556466 0.44262 3.54905e-17
4 1.6894 0.560412 3.55458e-17
4 1.71075 0.547402 3.29163e-17
4 1.73209 0.534391 3.02869e-17
4 1.75344 0.521381 2.76575e-17
4 1.77479 0.50837 2.5028e-17
4 1.79614 0.49536 2.23986e-17
4 1.81748 0.48235 1.97692e-17
4 1.83883 0.469339 1.71397e-17
4 1.86018 0.456329 1.45103e-17
4 1.88153 0.443318 1.18809e-17
4 1.90288 0.430308 9.25145e-18
4 1.93723 0.438645 2.88979e-18
4 1.95024 0.459993 -8.4243e-19
4 1.96325 0.481341 -4.57465e-18
4 1.97627 0.502688 -8.30687e-18
4 1.98928 0.524036 -1.20391e-17
4 2.00229 0.545384 -1.57713e-17
4 2.0153 0.566732 -1.95035e-17
4 2.02831 0.58808 -2.32358e-17
4 2.04132 0.609427 -2.6968e-17
4 2.05433 0.630775 -3.07002e-17
4 2.06734 0.652123 -3.44324e-17
4 2.059 0.686481 -3.55352e-17
4 2.03765 0.699492 -3.29058e-17
4 2.01631 0.712502 -3.02764e-17
4 1.99496 0.725513 -2.76469e-17
4 1.97361 0.738523 -2.50175e-17
4 1.95226 0.751533 -2.23881e-17
4 1.93091 0.764544 -1.97586e-17
4 1.90957 0.777554 -1.71292e-17
4 1.88822 0.790565 -1.44998e-17
4 1.86687 0.803575 -1.18703e-17
4 1.84552 0.816586 -9.24091e-18
4 1.81116 0.808248 -2.87926e-18
4 1.79815 0.786901 8.52965e-19
4 1.78514 0.765553 4.58519e-18
4 1.77213 0.744205 8.31741e-18
4 1.75912 0.722857 1.20496e-17
4 1.74611 0.701509 1.57819e-17
4 1.7331 0.680162 1.95141e-17
4 1.72009 0.658814 2.32463e-17
4 1.70708 0.637466 2.69785e-17
4 1.69407 0.616118 3.07107e-17
4 1.68106 0.594771 3.4443e-17
4 -1.98804 1.80475 -3.77735e-17
4 -1.96928 1.78821 -3.49071e-17
4 -1.95053 1.77168 -3.20408e-17
4 -1.93178 1.75515 -2.91744e-17
4 -1.91303 1.73861 -2.6308e-17
4 -1.89428 1.72208 -2.34416e-17
4 -1.87552 1.70555 -2.05753e-17
4 -1.85677 1.68901 -1.77089e-17
4 -1.83802 1.67248 -1.48425e-17
4 -1.81927 1.65595 -1.19761e-17
4 -1.80052 1.63941 -9.10975e-18
4 -1.76523 1.64163 -2.3354e-18
4 -1.7487 1.66038 1.57256e-18
4 -1.73216 1.67914 5.48053e-18
4 -1.71563 1.69789 9.3885e-18
4 -1.6991 1.71664 1.32965e-17
4 -1.68256 1.73539 1.72044e-17
4 -1.66603 1.75414 2.11124e-17
4 -1.64949 1.7729 2.50204e-17
4 -1.63296 1.79165 2.89283e-17
4 -1.61643 1.8104 3.28363e-17
4 -1.59989 1.82915 3.67443e-17
4 -1.60211 1.86444 3.77859e-17
4 -1.62087 1.88097 3.49195e-17
4 -1.63962 1.89751 3.20531e-17
4 -1.65837 1.91404 2.91867e-17
4 -1.67712 1.93057 2.63204e-17
4 -1.69587 1.94711 2.3454e-17
4 -1.71463 1.96364 2.05876e-17
4 -1.73338 1.98017 1.77212e-17
4 -1.75213 1.99671 1.48549e-17
4 -1.77088 2.01324 1.19885e-17
4 -1.78963 2.02977 9.12211e-18
4 -1.82492 2.02755 2.34777e-18
4 -1.84145 2.0088 -1.5602e-18
4 -1.85799 1.99005 -5.46817e-18
4 -1.87452 1.9713 -9.37614e-18
4 -1.89105 1.95255 -1.32841e-17
4 -1.90759 1.93379 -1.71921e-17
4 -1.92412 1.91504 -2.11e-17
4 -1.94065 1.89629 -2.5008e-17
4 -1.95719 1.87754 -2.8916e-17
4 -1.97372 1.85879 -3.28239e-17
4 -1.99026 1.84003 -3.67319e-17
4 -0.627204 1.66565 2.39355e-18
4 -0.606872 1.6802 1.6579e-18
4 -0.586539 1.69474 9.22246e-19
4 -0.566207 1.70929 1.86593e-19
4 -0.545874 1.72384 -5.4906e-19
4 -0.525542 1.73838 -1.28471e-18
4 -0.50521 1.75293 -2.02037e-18
4 -0.484877 1.76747 -2.75602e-18
4 -0.464545 1.78202 -3.49167e-18
4 -0.444212 1.79657 -4.22732e-18
4 -0.42388 1.81111 -4.96298e-18
4 -0.418094 1.84599 -5.48476e-18
4 -0.43264 1.86632 -5.2709e-18
4 -0.447186 1.88666 -5.05703e-18
4 -0.461733 1.90699 -4.84316e-18
4 -0.476279 1.92732 -4.6293e-18
4 -0.490825 1.94765 -4.41543e-18
4 -0.505371 1.96799 -4.20156e-18
4 -0.519917 1.98832 -3.98769e-18
4 -0.534464 2.00865 -3.77383e-18
4 -0.54901 2.02898 -3.55996e-18
4 -0.563556 2.04932 -3.34609e-18
4 -0.598435 2.0551 -2.39657e-18
4 -0.618767 2.04056 -1.66092e-18
4 -0.6391 2.02601 -9.25267e-19
4 -0.659432 2.01146 -1.89614e-19
4 -0.679764 1.99692 5.46039e-19
4 -0.700097 1.98237 1.28169e-18
4 -0.720429 1.96782 2.01734e-18
4 -0.740762 1.95328 2.753e-18
4 -0.761094 1.93873 3.48865e-18
4 -0.781427 1.92419 4.2243e-18
4 -0.801759 1.90964 4.95996e-18
4 -0.807545 1.87476 5.48174e-18
4 -0.792999 1.85443 5.26788e-18
4 -0.778453 1.8341 5.05401e-18
4 -0.763906 1.81376 4.84014e-18
4 -0.74936 1.79343 4.62627e-18
4 -0.734814 1.7731 4.41241e-18
4 -0.720268 1.75277 4.19854e-18
4 -0.705721 1.73243 3.98467e-18
4 -0.691175 1.7121 3.77081e-18
4 -0.676629 1.69177 3.55694e-18
4 -0.662083 1.67144 3.34307e-18
4 0.42429 1.80825 -8.31237e-17
4 0.444605 1.79368 -7.38826e-17
4 0.46492 1.77911 -6.46416e-17
4 0.485235 1.76454 -5.54005e-17
4 0.50555 1.74996 -4.61595e-17
4 0.525865 1.73539 -3.69185e-17
4 0.54618 1.72082 -2.76774e-17
4 0.566495 1.70625 -1.84364e-17
4 0.58681 1.69168 -9.19531e-18
4 0.607125 1.67711 4.57373e-20
4 0.62744 1.66254 9.28679e-18
4 0.662325 1.66829 2.46811e-17
4 0.676896 1.6886 3.08343e-17
4 0.691466 1.70892 3.69876e-17
4 0.706037 1.72923 4.31409e-17
4 0.720608 1.74954 4.92941e-17
4 0.735178 1.76986 5.54474e-17
4 0.749749 1.79017 6.16006e-17
4 0.764319 1.81049 6.77539e-17
4 0.77889 1.8308 7.39071e-17
4 0.793461 1.85112 8.00604e-17
4 0.808031 1.87143 8.62136e-17
4 0.802287 1.90632 8.31258e-17
4 0.781972 1.92089 7.38848e-17
4 0.761657 1.93546 6.46438e-17
4 0.741342 1.95003 5.54027e-17
4 0.721027 1.9646 4.61617e-17
4 0.700712 1.97917 3.69206e-17
4 0.680397 1.99374 2.76796e-17
4 0.660083 2.00831 1.84385e-17
4 0.639768 2.02289 9.19747e-18
4 0.619453 2.03746 -4.35821e-20
4 0.599138 2.05203 -9.28463e-18
4 0.564252 2.04628 -2.46789e-17
4 0.549682 2.02597 -3.08322e-17
4 0.535111 2.00565 -3.69854e-17
4 0.52054 1.98534 -4.31387e-17
4 0.50597 1.96502 -4.9292e-17
4 0.491399 1.94471 -5.54452e-17
4 0.476828 1.92439 -6.15985e-17
4 0.462258 1.90408 -6.77517e-17
4 0.447687 1.88376 -7.3905e-17
4 0.433116 1.86345 -8.00582e-17
4 0.418546 1.84313 -8.62115e-17
4 1.8005 1.64796 4.38467e-17
4 1.81927 1.66447 5.13683e-17
4 1.83805 1.68098 5.88898e-17
4 1.85682 1.69748 6.64114e-17
4 1.8756 1.71399 7.3933e-17
4 1.89437 1.7305 8.14546e-17
4 1.91314 1.74701 8.89762e-17
4 1.93192 1.76352 9.64977e-17
4 1.95069 1.78002 1.04019e-16
4 1.96947 1.79653 1.11541e-16
4 1.98824 1.81304 1.19062e-16
4 1.99051 1.84832 1.13013e-16
4 1.974 1.8671 9.94424e-17
4 1.95749 1.88587 8.58716e-17
4 1.94099 1.90465 7.23008e-17
4 1.92448 1.92342 5.873e-17
4 1.90797 1.9422 4.51591e-17
4 1.89146 1.96097 3.15883e-17
4 1.87495 1.97975 1.80175e-17
4 1.85845 1.99852 4.4467e-18
4 1.84194 2.01729 -9.12412e-18
4 1.82543 2.03607 -2.26949e-17
4 1.79015 2.03834 -4.37873e-17
4 1.77137 2.02183 -5.13089e-17
4 1.7526 2.00532 -5.88305e-17
4 1.73382 1.98881 -6.63521e-17
4 1.71505 1.9723 -7.38737e-17
4 1.69627 1.9558 -8.13952e-17
4 1.6775 1.93929 -8.89168e-17
4 1.65872 1.92278 -9.64384e-17
4 1.63995 1.90627 -1.0396e-16
4 1.62118 1.88976 -1.11482e-16
4 1.6024 1.87326 -1.19003e-16
4 1.60013 1.83797 -1.12954e-16
4 1.61664 1.8192 -9.93831e-17
4 1.63315 1.80042 -8.58123e-17
4 1.64966 1.78165 -7.22414e-17
4 1.66617 1.76287 -5.86706e-17
4 1.68267 1.7441 -4.50998e-17
4 1.69918 1.72533 -3.1529e-17
4 1.71569 1.70655 -1.79582e-17
4 1.7322 1.68778 -4.38736e-18
4 1.74871 1.669 9.18346e-18
4 1.76521 1.65023 2.27543e-17
1 -2.10132 -1.83662 0
1 -2.08494 -1.8555 0
1 -2.06855 -1.87439 0
1 -2.05215 -1.89329 0
1 -2.03572 -1.91218 0
1 -2.01927 -1.93105 0
1 -2.00281 -1.94991 0
1 -1.98635 -1.96876 0
1 -1.96989 -1.9876 0
1 -1.95344 -2.00644 0
1 -1.93699 -2.02527 0
1 -1.92054 -2.0441 0
1 -1.90409 -2.06293 0
1 -1.88764 -2.08176 0
1 -1.8712 -2.10059 0
1 -1.85475 -2.11943 0
1 -1.83831 -2.13826 0
1 -2.02436 -1.7349 0
1 -2.04272 -1.7519 0
1 -2.0613 -1.76853 0
1 -2.08005 -1.78498 0
1 -2.09887 -1.80138 0
1 -1.80303 -2.14064 0
1 -1.7842 -2.1242 0
1 -1.76537 -2.10775 0
1 -1.74654 -2.09131 0
1 -1.72771 -2.07486 0
1 -1.70889 -2.05842 0
1 -1.69006 -2.04197 0
1 -1.67124 -2.02553 0
1 -1.65242 -2.00908 0
1 -1.6336 -1.99264 0
1 -1.61478 -1.97621 0
1 -1.59596 -1.95978 0
1 -1.57715 -1.94338 0
1 -1.55831 -1.927 0
1 -1.53946 -1.91065 0
1 -1.52058 -1.89429 0
1 -1.50171 -1.87789 0
1 -2.06867 -0.798409 0
1 -2.08107 -0.822932 0
1 -2.09307 -0.847922 0
1 -2.10427 -0.873267 0
1 -2.11463 -0.898928 0
1 -2.12417 -0.924884 0
1 -2.13288 -0.951115 0
1 -2.14076 -0.977599 0
1 -2.1478 -1.00431 0
1 -2.15401 -1.03123 0
1 -2.15936 -1.05833 0
1 -2.16386 -1.08558 0
1 -2.16751 -1.11297 0
1 -2.1703 -1.14046 0
1 -2.17222 -1.16803 0
1 -2.17327 -1.19565 0
1 -2.17344 -1.2233 0
1 -2.17274 -1.25096 0
1 -2.17115 -1.27859 0
1 -2.16867 -1.30618 0
1 -2.1653 -1.33368 0
1 -2.16104 -1.36108 0
1 -2.15587 -1.38834 0
1 -2.1498 -1.41544 0
1 -2.14282 -1.44235 0
1 -2.13493 -1.46903 0
1 -2.12614 -1.49545 0
1 -2.11642 -1.52158 0
1 -2.10579 -1.54739 0
1 -2.09425 -1.57284 0
1 -2.0818 -1.59789 0
1 -2.06844 -1.62252 0
1 -2.05415 -1.64669 0
1 -2.03893 -1.67036 0
1 -2.02282 -1.69354 0
1 -1.49927 -1.84259 0
1 -1.51572 -1.82372 0
1 -1.53224 -1.80487 0
1 -1.54896 -1.78615 0
1 -1.56604 -1.76779 0
1 -2.16069 -0.706623 0