14926
 Atoms. Timestep: 4000000
4 -1.89703 -2.09873 -2.08251e-17
4 -1.65147 -1.92639 1.59165e-16
4 -1.82382 -1.68083 2.07374e-17
4 -2.06937 -1.85318 -1.59253e-16
4 -0.838184 -1.95693 -3.84049e-17
4 -0.578351 -2.10689 -1.80877e-17
4 -0.428396 -1.84705 3.8415e-17
4 -0.688229 -1.6971 1.80978e-17
4 0.574205 -2.11147 -1.84508e-17
4 0.834716 -1.9627 -6.01577e-17
4 0.685941 -1.70219 1.84672e-17
4 0.42543 -1.85096 6.01741e-17
4 1.64911 -1.92346 -9.59349e-18
4 1.89456 -2.09595 7.3838e-17
4 2.06705 -1.8505 9.55324e-18
4 1.8216 -1.67801 -7.38783e-17
4 -2.11786 -0.699228 -6.27078e-17
4 -1.85088 -0.836053 1.5368e-17
4 -1.71405 -0.569073 6.274e-17
4 -1.98103 -0.432247 -1.53358e-17
4 -0.709843 -0.836836 -1.19566e-17
4 -0.438465 -0.708953 -1.33941e-16
4 -0.566348 -0.437575 1.19418e-17
4 -0.837726 -0.565458 1.33926e-16
4 0.443071 -0.712809 -3.9371e-17
4 0.714818 -0.839906 -5.41707e-18
4 0.841916 -0.56816 3.93729e-17
4 0.570169 -0.441062 5.419e-18
4 1.85602 -0.833313 -3.72192e-17
4 2.12357 -0.697619 1.43446e-18
4 1.98788 -0.430061 3.72008e-17
4 1.72032 -0.565756 -1.45291e-18
4 -1.98504 0.430727 4.93641e-17
4 -1.71843 0.568274 -4.47266e-17
4 -1.85598 0.834884 -4.93781e-17
4 -2.12259 0.697336 4.47125e-17
4 -0.841958 0.570849 3.90732e-32
4 -0.570439 0.443268 -5.64529e-32
4 -0.442857 0.714787 -3.02603e-32
4 -0.714377 0.842369 4.83177e-32
4 0.566621 0.440998 3.55234e-17
4 0.838099 0.56867 -3.51297e-17
4 0.710427 0.840147 -3.55241e-17
4 0.438949 0.712475 3.5129e-17
4 1.71601 0.570816 3.2676e-17
4 1.9839 0.435769 3.99362e-18
4 2.11895 0.703654 -3.26669e-17
4 1.85106 0.838701 -3.98449e-18
4 -2.06483 1.85048 -4.20363e-17
4 -1.82001 1.6771 -3.14225e-18
4 -1.64662 1.92192 4.20507e-17
4 -1.89145 2.0953 3.15667e-18
4 -0.684128 1.70287 1.01433e-17
4 -0.42497 1.85399 -4.05495e-17
4 -0.57609 2.11315 -1.01657e-17
4 -0.835248 1.96203 4.05272e-17
4 0.425377 1.85134 -5.53695e-17
4 0.684383 1.69996 8.31793e-17
4 0.835762 1.95897 5.53891e-17
4 0.576756 2.11035 -8.31596e-17
4 1.82005 1.6841 2.44908e-17
4 2.06506 1.85723 6.14778e-17
4 1.89193 2.10223 -2.44601e-17
4 1.64693 1.9291 -6.14471e-17
1 -2.17367 -1.83455 0
1 -1.91535 -2.20321 0
1 -2.05214 -1.74627 0
1 -1.54696 -1.94508 0
1 -2.08581 -0.802173 0
1 -1.63548 -1.82409 0
1 -2.21861 -0.732072 0
1 -0.864388 -1.85507 0
1 -2.01367 -0.331285 0
1 -0.940641 -1.98439 0
1 -1.88102 -0.401429 0
1 -0.550522 -2.20912 0
1 -1.88517 0.400035 0
1 -0.473749 -2.08001 0
1 -2.01759 0.329701 0
1 0.469849 -2.08432 0
1 -2.2235 0.729785 0
1 0.54606 -2.21366 0
1 -2.09101 0.800308 0
1 0.93704 -1.99072 0
1 -2.04785 1.74338 0
1 0.861533 -1.86106 0
1 -2.16916 1.83212 0
1 1.63348 -1.82078 0
1 -1.90932 2.19985 0
1 1.54458 -1.9418 0
1 -1.54203 1.93988 0
1 1.91281 -2.20043 0
1 -1.63139 1.81918 0
1 2.17132 -1.83178 0
1 -0.86108 1.8602 0
1 2.04968 -1.74346 0
1 -0.937818 1.98912 0
1 2.09128 -0.800305 0
1 -0.548863 2.21558 0
1 2.22427 -0.730751 0
1 -0.471468 2.08694 0
1 2.02111 -0.329259 0
1 0.471993 2.08406 0
1 1.8882 -0.398644 0
1 0.549489 2.21274 0
1 1.88408 0.404257 0
1 0.938366 1.98586 0
1 2.0172 0.335033 0
1 0.861373 1.85699 0
1 2.21948 0.73717 0
1 1.6312 1.8267 0
1 2.0862 0.806375 0
1 1.54235 1.94747 0
1 2.04817 1.75028 0
1 1.90991 2.20676 0
1 2.16943 1.83894 0
1 -1.95063 -0.866425 0
1 -1.92652 -1.66483 0
1 -1.81808 -0.936865 0
1 -1.80505 -1.57648 0
1 -1.74753 -0.804382 0
1 -1.71611 -1.69746 0
1 -0.811993 -0.801796 0
1 -0.792003 -1.72378 0
1 -0.745812 -0.936544 0
1 -0.715825 -1.59466 0
1 -0.61056 -0.871255 0
1 -0.587876 -1.67302 0
1 -0.454764 -1.74163 0
1 -0.473597 -0.810151 0
1 -0.326137 -1.81919 0
1 -0.33863 -0.744837 0
1 -0.40329 -1.94797 0
1 -0.404687 -0.610049 0
1 0.399495 -1.95205 0
1 0.409248 -0.614235 0
1 0.323289 -1.8226 0
1 0.343347 -0.749002 0
1 0.452072 -1.7453 0
1 0.478591 -0.8137 0
1 0.585603 -1.6773 0
1 0.615647 -0.874562 0
1 0.714044 -1.59985 0
1 0.751057 -0.939506 0
1 0.789743 -1.72925 0
1 0.816567 -0.80449 0
1 1.71425 -1.69484 0
1 1.75239 -0.801296 0
1 1.80287 -1.57371 0
1 1.82277 -0.933956 0
1 1.92397 -1.66245 0
1 1.95587 -0.864428 0
1 -1.74978 0.464846 0
1 -1.74582 -0.466056 0
1 -1.6175 0.535766 0
1 -1.61324 -0.536291 0
1 -1.68844 0.668103 0
1 -1.68412 -0.668675 0
1 -0.875608 0.669406 0
1 -0.87161 -0.664189 0
1 -0.941645 0.534672 0
1 -0.937445 -0.529361 0
1 -0.806709 0.469139 0
1 -0.802657 -0.463417 0
1 -1.92245 1.66189 0
1 -1.95593 0.865235 0
1 -1.80173 1.57268 0
1 -1.82342 0.935782 0
1 -1.7126 1.69348 0
1 -1.75234 0.8036 0
1 -0.78821 1.72896 0
1 -0.816432 0.807088 0
1 -0.711174 1.60029 0
1 -0.750543 0.941985 0
1 -0.583231 1.6789 0
1 -0.615288 0.87675 0
1 -0.665042 -0.403782 0
1 -0.669199 0.409598 0
1 -0.530242 -0.337852 0
1 -0.534356 0.34356 0
1 -0.464366 -0.472615 0
1 -0.468774 0.47851 0
1 0.468408 -0.476545 0
1 0.464461 0.476119 0
1 0.533767 -0.341462 0
1 0.530449 0.34132 0
1 0.668617 -0.407346 0
1 0.665424 0.40703 0
1 0.80644 -0.466258 0
1 0.802953 0.466805 0
1 0.941492 -0.531776 0
1 0.937806 0.532534 0
1 0.875893 -0.666848 0
1 0.87213 0.667491 0
1 1.68969 -0.665108 0
1 1.68549 0.669997 0
1 1.61963 -0.532439 0
1 1.61541 0.537304 0
1 1.75242 -0.462595 0
1 1.7485 0.467988 0
1 -0.478215 0.81589 0
1 -0.450651 1.74827 0
1 -0.343093 0.750794 0
1 -0.322566 1.8266 0
1 -0.409113 0.615977 0
1 -0.400011 1.95522 0
1 0.405189 0.61388 0
1 0.400855 1.9524 0
1 0.339173 0.748595 0
1 0.322976 1.82403 0
1 0.474196 0.813755 0
1 0.451174 1.74583 0
1 0.611322 0.874604 0
1 0.583634 1.67641 0
1 0.746528 0.939833 0
1 0.711315 1.59737 0
1 0.812384 0.805015 0
1 0.788375 1.72605 0
1 1.74769 0.806275 0
1 1.71233 1.70036 0
1 1.81747 0.939224 0
1 1.80166 1.57968 0
1 1.95059 0.869758 0
1 1.92274 1.66845 0
4 -1.87656 -2.08437 -5.8259e-18
4 -1.8561 -2.07001 9.17327e-18
4 -1.83564 -2.05565 2.41725e-17
4 -1.81517 -2.04129 3.91716e-17
4 -1.79471 -2.02692 5.41708e-17
4 -1.77425 -2.01256 6.917e-17
4 -1.75379 -1.9982 8.41692e-17
4 -1.73332 -1.98384 9.91683e-17
4 -1.71286 -1.96948 1.14168e-16
4 -1.6924 -1.95511 1.29167e-16
4 -1.67193 -1.94075 1.44166e-16
4 -1.66583 -1.90593 1.47629e-16
4 -1.68019 -1.88546 1.36094e-16
4 -1.69456 -1.865 1.24558e-16
4 -1.70892 -1.84454 1.13023e-16
4 -1.72328 -1.82407 1.01487e-16
4 -1.73764 -1.80361 8.99512e-17
4 -1.752 -1.78315 7.84156e-17
4 -1.76637 -1.76269 6.688e-17
4 -1.78073 -1.74222 5.53443e-17
4 -1.79509 -1.72176 4.38087e-17
4 -1.80945 -1.7013 3.22731e-17
4 -1.84428 -1.6952 5.73825e-18
4 -1.86474 -1.70956 -9.26093e-18
4 -1.8852 -1.72392 -2.42601e-17
4 -1.90567 -1.73828 -3.92593e-17
4 -1.92613 -1.75264 -5.42585e-17
4 -1.94659 -1.76701 -6.92576e-17
4 -1.96706 -1.78137 -8.42568e-17
4 -1.98752 -1.79573 -9.9256e-17
4 -2.00798 -1.81009 -1.14255e-16
4 -2.02844 -1.82445 -1.29254e-16
4 -2.04891 -1.83882 -1.44254e-16
4 -2.05501 -1.87364 -1.47717e-16
4 -2.04065 -1.8941 -1.36181e-16
4 -2.02628 -1.91457 -1.24646e-16
4 -2.01192 -1.93503 -1.1311e-16
4 -1.99756 -1.95549 -1.01575e-16
4 -1.9832 -1.97596 -9.00389e-17
4 -1.96884 -1.99642 -7.85033e-17
4 -1.95447 -2.01688 -6.69676e-17
4 -1.94011 -2.03734 -5.5432e-17
4 -1.92575 -2.05781 -4.38964e-17
4 -1.91139 -2.07827 -3.23607e-17
4 -0.816532 -1.96943 -3.67118e-17
4 -0.794879 -1.98192 -3.50187e-17
4 -0.773226 -1.99442 -3.33256e-17
4 -0.751573 -2.00692 -3.16325e-17
4 -0.72992 -2.01941 -2.99394e-17
4 -0.708268 -2.03191 -2.82463e-17
4 -0.686615 -2.0444 -2.65532e-17
4 -0.664962 -2.0569 -2.48601e-17
4 -0.643309 -2.0694 -2.3167e-17
4 -0.621656 -2.08189 -2.14739e-17
4 -0.600004 -2.09439 -1.97808e-17
4 -0.565855 -2.08523 -1.33791e-17
4 -0.553358 -2.06358 -8.67054e-18
4 -0.540862 -2.04193 -3.96199e-18
4 -0.528366 -2.02027 7.46565e-19
4 -0.51587 -1.99862 5.45512e-18
4 -0.503373 -1.97697 1.01637e-17
4 -0.490877 -1.95532 1.48722e-17
4 -0.478381 -1.93366 1.95808e-17
4 -0.465885 -1.91201 2.42893e-17
4 -0.453388 -1.89036 2.89979e-17
4 -0.440892 -1.86871 3.37064e-17
4 -0.450049 -1.83456 3.67219e-17
4 -0.471701 -1.82206 3.50288e-17
4 -0.493354 -1.80956 3.33357e-17
4 -0.515007 -1.79707 3.16426e-17
4 -0.53666 -1.78457 2.99495e-17
4 -0.558313 -1.77207 2.82564e-17
4 -0.579965 -1.75958 2.65633e-17
4 -0.601618 -1.74708 2.48702e-17
4 -0.623271 -1.73459 2.31771e-17
4 -0.644924 -1.72209 2.1484e-17
4 -0.666576 -1.70959 1.97909e-17
4 -0.700726 -1.71875 1.33892e-17
4 -0.713222 -1.7404 8.68064e-18
4 -0.725718 -1.76206 3.97209e-18
4 -0.738214 -1.78371 -7.36467e-19
4 -0.750711 -1.80536 -5.44502e-18
4 -0.763207 -1.82701 -1.01536e-17
4 -0.775703 -1.84867 -1.48621e-17
4 -0.788199 -1.87032 -1.95707e-17
4 -0.800696 -1.89197 -2.42792e-17
4 -0.813192 -1.91363 -2.89878e-17
4 -0.825688 -1.93528 -3.36963e-17
4 0.595914 -2.09907 -2.19264e-17
4 0.617623 -2.08668 -2.5402e-17
4 0.639333 -2.07428 -2.88775e-17
4 0.661042 -2.06188 -3.23531e-17
4 0.682751 -2.04948 -3.58287e-17
4 0.70446 -2.03709 -3.93043e-17
4 0.72617 -2.02469 -4.27799e-17
4 0.747879 -2.01229 -4.62554e-17
4 0.769588 -1.99989 -4.9731e-17
4 0.791297 -1.98749 -5.32066e-17
4 0.813007 -1.9751 -5.66822e-17
4 0.822318 -1.94099 -5.36056e-17
4 0.80992 -1.91928 -4.70536e-17
4 0.797522 -1.89757 -4.05015e-17
4 0.785124 -1.87586 -3.39494e-17
4 0.772726 -1.85415 -2.73973e-17
4 0.760328 -1.83244 -2.08452e-17
4 0.747931 -1.81073 -1.42932e-17
4 0.735533 -1.78902 -7.74109e-18
4 0.723135 -1.76731 -1.18901e-18
4 0.710737 -1.74561 5.36307e-18
4 0.698339 -1.7239 1.19151e-17
4 0.664232 -1.71458 2.19428e-17
4 0.642522 -1.72698 2.54184e-17
4 0.620813 -1.73938 2.8894e-17
4 0.599104 -1.75178 3.23695e-17
4 0.577395 -1.76418 3.58451e-17
4 0.555685 -1.77657 3.93207e-17
4 0.533976 -1.78897 4.27963e-17
4 0.512267 -1.80137 4.62718e-17
4 0.490558 -1.81377 4.97474e-17
4 0.468848 -1.82617 5.3223e-17
4 0.447139 -1.83856 5.66986e-17
4 0.437828 -1.87267 5.36221e-17
4 0.450226 -1.89438 4.707e-17
4 0.462624 -1.91609 4.05179e-17
4 0.475022 -1.9378 3.39658e-17
4 0.487419 -1.95951 2.74137e-17
4 0.499817 -1.98122 2.08617e-17
4 0.512215 -2.00293 1.43096e-17
4 0.524613 -2.02464 7.7575e-18
4 0.537011 -2.04634 1.20542e-18
4 0.549409 -2.06805 -5.34666e-18
4 0.561807 -2.08976 -1.18987e-17
4 1.66956 -1.93784 -2.64087e-18
4 1.69001 -1.95221 4.31176e-18
4 1.71047 -1.96658 1.12644e-17
4 1.73092 -1.98096 1.8217e-17
4 1.75138 -1.99533 2.51696e-17
4 1.77183 -2.00971 3.21223e-17
4 1.79229 -2.02408 3.90749e-17
4 1.81274 -2.03846 4.60275e-17
4 1.8332 -2.05283 5.29802e-17
4 1.85365 -2.0672 5.99328e-17
4 1.8741 -2.08158 6.68854e-17
4 1.90893 -2.0755 6.8481e-17
4 1.92331 -2.05504 6.31239e-17
4 1.93768 -2.03459 5.77668e-17
4 1.95206 -2.01413 5.24098e-17
4 1.96643 -1.99368 4.70527e-17
4 1.9808 -1.97323 4.16956e-17
4 1.99518 -1.95277 3.63386e-17
4 2.00955 -1.93232 3.09815e-17
4 2.02393 -1.91186 2.56244e-17
4 2.0383 -1.89141 2.02674e-17
4 2.05267 -1.87095 1.49103e-17
4 2.04659 -1.83613 2.60061e-18
4 2.02614 -1.82175 -4.35202e-18
4 2.00569 -1.80738 -1.13046e-17
4 1.98523 -1.793 -1.82573e-17
4 1.96478 -1.77863 -2.52099e-17
4 1.94432 -1.76425 -3.21625e-17
4 1.92387 -1.74988 -3.91152e-17
4 1.90341 -1.73551 -4.60678e-17
4 1.88296 -1.72113 -5.30204e-17
4 1.8625 -1.70676 -5.9973e-17
4 1.84205 -1.69238 -6.69257e-17
4 1.80722 -1.69846 -6.85212e-17
4 1.79285 -1.71892 -6.31642e-17
4 1.77847 -1.73937 -5.78071e-17
4 1.7641 -1.75983 -5.245e-17
4 1.74972 -1.78028 -4.7093e-17
4 1.73535 -1.80074 -4.17359e-17
4 1.72098 -1.82119 -3.63788e-17
4 1.7066 -1.84164 -3.10218e-17
4 1.69223 -1.8621 -2.56647e-17
4 1.67785 -1.88255 -2.03076e-17
4 1.66348 -1.90301 -1.49506e-17
4 -2.09561 -0.71063 -5.62015e-17
4 -2.07336 -0.722032 -4.96952e-17
4 -2.05111 -0.733434 -4.31888e-17
4 -2.02886 -0.744836 -3.66825e-17
4 -2.00662 -0.756238 -3.01762e-17
4 -1.98437 -0.76764 -2.36699e-17
4 -1.96212 -0.779043 -1.71636e-17
4 -1.93987 -0.790445 -1.06572e-17
4 -1.91762 -0.801847 -4.15093e-18
4 -1.89537 -0.813249 2.35539e-18
4 -1.87313 -0.824651 8.86171e-18
4 -1.83947 -0.813805 1.93157e-17
4 -1.82807 -0.791557 2.32634e-17
4 -1.81667 -0.769308 2.7211e-17
4 -1.80527 -0.74706 3.11587e-17
4 -1.79387 -0.724811 3.51064e-17
4 -1.78246 -0.702563 3.9054e-17
4 -1.77106 -0.680315 4.30017e-17
4 -1.75966 -0.658066 4.69493e-17
4 -1.74826 -0.635818 5.0897e-17
4 -1.73686 -0.613569 5.48447e-17
4 -1.72545 -0.591321 5.87923e-17
4 -1.7363 -0.557671 5.62337e-17
4 -1.75855 -0.546268 4.97274e-17
4 -1.7808 -0.534866 4.3221e-17
4 -1.80304 -0.523464 3.67147e-17
4 -1.82529 -0.512062 3.02084e-17
4 -1.84754 -0.50066 2.37021e-17
4 -1.86979 -0.489258 1.71958e-17
4 -1.89204 -0.477855 1.06895e-17
4 -1.91429 -0.466453 4.18313e-18
4 -1.93654 -0.455051 -2.32319e-18
4 -1.95878 -0.443649 -8.82951e-18
4 -1.99243 -0.454495 -1.92835e-17
4 -2.00384 -0.476744 -2.32312e-17
4 -2.01524 -0.498992 -2.71788e-17
4 -2.02664 -0.52124 -3.11265e-17
4 -2.03804 -0.543489 -3.50742e-17
4 -2.04944 -0.565737 -3.90218e-17
4 -2.06085 -0.587986 -4.29695e-17
4 -2.07225 -0.610234 -4.69171e-17
4 -2.08365 -0.632482 -5.08648e-17
4 -2.09505 -0.654731 -5.48125e-17
4 -2.10646 -0.676979 -5.87601e-17
4 -0.687228 -0.826179 -2.21219e-17
4 -0.664613 -0.815522 -3.22872e-17
4 -0.641998 -0.804865 -4.24526e-17
4 -0.619384 -0.794208 -5.26179e-17
4 -0.596769 -0.783551 -6.27832e-17
4 -0.574154 -0.772894 -7.29486e-17
4 -0.551539 -0.762237 -8.31139e-17
4 -0.528924 -0.751581 -9.32792e-17
4 -0.50631 -0.740924 -1.03445e-16
4 -0.483695 -0.730267 -1.1361e-16
4 -0.46108 -0.71961 -1.23775e-16
4 -0.449122 -0.686338 -1.21784e-16
4 -0.459779 -0.663723 -1.09627e-16
4 -0.470436 -0.641108 -9.74699e-17
4 -0.481093 -0.618494 -8.53131e-17
4 -0.49175 -0.595879 -7.31562e-17
4 -0.502407 -0.573264 -6.09994e-17
4 -0.513064 -0.550649 -4.88425e-17
4 -0.523721 -0.528034 -3.66856e-17
4 -0.534378 -0.505419 -2.45288e-17
4 -0.545034 -0.482805 -1.23719e-17
4 -0.555691 -0.46019 -2.15037e-19
4 -0.588963 -0.448232 2.21072e-17
4 -0.611578 -0.458889 3.22725e-17
4 -0.634193 -0.469546 4.24378e-17
4 -0.656808 -0.480203 5.26031e-17
4 -0.679422 -0.49086 6.27685e-17
4 -0.702037 -0.501517 7.29338e-17
4 -0.724652 -0.512174 8.30991e-17
4 -0.747267 -0.522831 9.32645e-17
4 -0.769882 -0.533487 1.0343e-16
4 -0.792496 -0.544144 1.13595e-16
4 -0.815111 -0.554801 1.2376e-16
4 -0.827069 -0.588073 1.21769e-16
4 -0.816412 -0.610688 1.09612e-16
4 -0.805755 -0.633303 9.74552e-17
4 -0.795098 -0.655918 8.52983e-17
4 -0.784441 -0.678532 7.31414e-17
4 -0.773784 -0.701147 6.09846e-17
4 -0.763128 -0.723762 4.88277e-17
4 -0.752471 -0.746377 3.66709e-17
4 -0.741814 -0.768992 2.4514e-17
4 -0.731157 -0.791606 1.23571e-17
4 -0.7205 -0.814221 2.00272e-19
4 0.465717 -0.7234 -3.65415e-17
4 0.488363 -0.733992 -3.3712e-17
4 0.511008 -0.744583 -3.08825e-17
4 0.533654 -0.755175 -2.8053e-17
4 0.556299 -0.765766 -2.52235e-17
4 0.578945 -0.776358 -2.2394e-17
4 0.60159 -0.786949 -1.95645e-17
4 0.624236 -0.797541 -1.6735e-17
4 0.646881 -0.808132 -1.39055e-17
4 0.669527 -0.818723 -1.10761e-17
4 0.692173 -0.829315 -8.24656e-18
4 0.72541 -0.817261 -1.68457e-18
4 0.736001 -0.794615 2.04792e-18
4 0.746592 -0.77197 5.78042e-18
4 0.757184 -0.749324 9.51292e-18
4 0.767775 -0.726679 1.32454e-17
4 0.778367 -0.704033 1.69779e-17
4 0.788958 -0.681388 2.07104e-17
4 0.79955 -0.658742 2.44429e-17
4 0.810141 -0.636096 2.81754e-17
4 0.820733 -0.613451 3.19079e-17
4 0.831324 -0.590805 3.56404e-17
4 0.81927 -0.557568 3.65434e-17
4 0.796625 -0.546977 3.37139e-17
4 0.773979 -0.536385 3.08844e-17
4 0.751333 -0.525794 2.80549e-17
4 0.728688 -0.515202 2.52254e-17
4 0.706042 -0.504611 2.23959e-17
4 0.683397 -0.49402 1.95665e-17
4 0.660751 -0.483428 1.6737e-17
4 0.638106 -0.472837 1.39075e-17
4 0.61546 -0.462245 1.1078e-17
4 0.592815 -0.451654 8.24849e-18
4 0.559578 -0.463708 1.68651e-18
4 0.548986 -0.486353 -2.04599e-18
4 0.538395 -0.508999 -5.77849e-18
4 0.527803 -0.531644 -9.51098e-18
4 0.517212 -0.55429 -1.32435e-17
4 0.50662 -0.576936 -1.6976e-17
4 0.496029 -0.599581 -2.07085e-17
4 0.485437 -0.622227 -2.4441e-17
4 0.474846 -0.644872 -2.81735e-17
4 0.464254 -0.667518 -3.1906e-17
4 0.453663 -0.690163 -3.56385e-17
4 1.87831 -0.822005 -3.39981e-17
4 1.90061 -0.810697 -3.0777e-17
4 1.9229 -0.799389 -2.75558e-17
4 1.9452 -0.788082 -2.43347e-17
4 1.9675 -0.776774 -2.11135e-17
4 1.98979 -0.765466 -1.78924e-17
4 2.01209 -0.754158 -1.46712e-17
4 2.03439 -0.74285 -1.14501e-17
4 2.05668 -0.731542 -8.22896e-18
4 2.07898 -0.720234 -5.00782e-18
4 2.10128 -0.708927 -1.78668e-18
4 2.11226 -0.675322 4.41499e-18
4 2.10096 -0.653026 7.39552e-18
4 2.08965 -0.630729 1.0376e-17
4 2.07834 -0.608433 1.33566e-17
4 2.06703 -0.586136 1.63371e-17
4 2.05573 -0.56384 1.93176e-17
4 2.04442 -0.541544 2.22982e-17
4 2.03311 -0.519247 2.52787e-17
4 2.0218 -0.496951 2.82592e-17
4 2.01049 -0.474654 3.12397e-17
4 1.99919 -0.452358 3.42203e-17
4 1.96558 -0.441369 3.39796e-17
4 1.94329 -0.452677 3.07585e-17
4 1.92099 -0.463985 2.75374e-17
4 1.89869 -0.475293 2.43162e-17
4 1.8764 -0.4866 2.10951e-17
4 1.8541 -0.497908 1.78739e-17
4 1.8318 -0.509216 1.46528e-17
4 1.80951 -0.520524 1.14317e-17
4 1.78721 -0.531832 8.21051e-18
4 1.76491 -0.54314 4.98937e-18
4 1.74262 -0.554448 1.76823e-18
4 1.73163 -0.588052 -4.43344e-18
4 1.74294 -0.610348 -7.41397e-18
4 1.75424 -0.632645 -1.03945e-17
4 1.76555 -0.654941 -1.3375e-17
4 1.77686 -0.677238 -1.63555e-17
4 1.78817 -0.699534 -1.93361e-17
4 1.79948 -0.721831 -2.23166e-17
4 1.81078 -0.744127 -2.52971e-17
4 1.82209 -0.766424 -2.82777e-17
4 1.8334 -0.78872 -3.12582e-17
4 1.84471 -0.811017 -3.42387e-17
4 -1.96283 0.442189 4.15232e-17
4 -1.94061 0.453651 3.36823e-17
4 -1.91839 0.465114 2.58414e-17
4 -1.89617 0.476576 1.80005e-17
4 -1.87396 0.488038 1.01597e-17
4 -1.85174 0.4995 2.31876e-18
4 -1.82952 0.510963 -5.52212e-18
4 -1.8073 0.522425 -1.3363e-17
4 -1.78509 0.533887 -2.12039e-17
4 -1.76287 0.54535 -2.90448e-17
4 -1.74065 0.556812 -3.68857e-17
4 -1.7299 0.590492 -4.51142e-17
4 -1.74136 0.612709 -4.55018e-17
4 -1.75282 0.634927 -4.58894e-17
4 -1.76428 0.657144 -4.62771e-17
4 -1.77575 0.679362 -4.66647e-17
4 -1.78721 0.701579 -4.70523e-17
4 -1.79867 0.723797 -4.744e-17
4 -1.81013 0.746014 -4.78276e-17
4 -1.8216 0.768231 -4.82152e-17
4 -1.83306 0.790449 -4.86028e-17
4 -1.84452 0.812666 -4.89905e-17
4 -1.8782 0.823422 -4.15372e-17
4 -1.90042 0.811959 -3.36963e-17
4 -1.92263 0.800497 -2.58554e-17
4 -1.94485 0.789035 -1.80146e-17
4 -1.96707 0.777572 -1.01737e-17
4 -1.98929 0.76611 -2.33278e-18
4 -2.0115 0.754648 5.50811e-18
4 -2.03372 0.743185 1.3349e-17
4 -2.05594 0.731723 2.11899e-17
4 -2.07816 0.720261 2.90308e-17
4 -2.10037 0.708798 3.68717e-17
4 -2.11113 0.675119 4.51002e-17
4 -2.09967 0.652901 4.54878e-17
4 -2.0882 0.630684 4.58754e-17
4 -2.07674 0.608466 4.62631e-17
4 -2.06528 0.586249 4.66507e-17
4 -2.05382 0.564031 4.70383e-17
4 -2.04236 0.541814 4.74259e-17
4 -2.03089 0.519596 4.78136e-17
4 -2.01943 0.497379 4.82012e-17
4 -2.00797 0.475162 4.85888e-17
4 -1.99651 0.452944 4.89765e-17
4 -0.819332 0.560217 8.25831e-33
4 -0.796705 0.549586 -2.15784e-34
4 -0.774079 0.538954 -1.08084e-32
4 -0.751452 0.528322 -2.17862e-32
4 -0.728825 0.51769 -8.68988e-33
4 -0.706199 0.507058 -4.06764e-33
4 -0.683572 0.496427 -2.56381e-32
4 -0.660945 0.485795 -4.4127e-32
4 -0.638319 0.475163 -4.10455e-32
4 -0.615692 0.464531 -6.87789e-32
4 -0.593065 0.453899 -6.26159e-32
4 -0.559807 0.465894 -7.49419e-32
4 -0.549175 0.488521 -4.4127e-32
4 -0.538543 0.511148 -5.029e-32
4 -0.527912 0.533774 -5.64529e-32
4 -0.51728 0.556401 -5.029e-32
4 -0.506648 0.579028 -4.72085e-32
4 -0.496016 0.601654 -1.94751e-32
4 -0.485384 0.624281 -2.25566e-32
4 -0.474753 0.646907 -2.87195e-32
4 -0.464121 0.669534 -1.33121e-32
4 -0.453489 0.692161 -4.72085e-32
4 -0.465484 0.725419 -1.94751e-32
4 -0.488111 0.736051 -2.48677e-32
4 -0.510737 0.746683 -1.38899e-32
4 -0.533364 0.757315 9.02868e-33
4 -0.55599 0.767946 2.67472e-32
4 -0.578617 0.778578 1.44213e-32
4 -0.601244 0.78921 -7.14913e-33
4 -0.62387 0.799842 3.59917e-32
4 -0.646497 0.810473 4.83177e-32
4 -0.669124 0.821105 4.21547e-32
4 -0.69175 0.831737 2.98287e-32
4 -0.725009 0.819742 4.21547e-32
4 -0.735641 0.797116 5.44806e-32
4 -0.746272 0.774489 5.44806e-32
4 -0.756904 0.751862 1.75028e-32
4 -0.767536 0.729236 3.59917e-32
4 -0.778168 0.706609 3.59917e-32
4 -0.7888 0.683982 1.44213e-32
4 -0.799431 0.661356 4.21547e-32
4 -0.810063 0.638729 4.21547e-32
4 -0.820695 0.616102 2.67472e-32
4 -0.831327 0.593476 4.21547e-32
4 0.589244 0.451637 2.96356e-17
4 0.611867 0.462277 2.37479e-17
4 0.634491 0.472916 1.78601e-17
4 0.657114 0.483555 1.19724e-17
4 0.679737 0.494195 6.08463e-18
4 0.70236 0.504834 1.96875e-19
4 0.724983 0.515473 -5.69088e-18
4 0.747606 0.526113 -1.15786e-17
4 0.770229 0.536752 -1.74664e-17
4 0.792852 0.547391 -2.33541e-17
4 0.815475 0.558031 -2.92419e-17
4 0.827459 0.591293 -3.51625e-17
4 0.81682 0.613916 -3.51954e-17
4 0.806181 0.636539 -3.52283e-17
4 0.795541 0.659162 -3.52611e-17
4 0.784902 0.681785 -3.5294e-17
4 0.774263 0.704409 -3.53269e-17
4 0.763623 0.727032 -3.53597e-17
4 0.752984 0.749655 -3.53926e-17
4 0.742345 0.772278 -3.54255e-17
4 0.731705 0.794901 -3.54583e-17
4 0.721066 0.817524 -3.54912e-17
4 0.687804 0.829508 -2.96363e-17
4 0.665181 0.818869 -2.37485e-17
4 0.642557 0.808229 -1.78608e-17
4 0.619934 0.79759 -1.1973e-17
4 0.597311 0.786951 -6.08528e-18
4 0.574688 0.776311 -1.97523e-19
4 0.552065 0.765672 5.69023e-18
4 0.529442 0.755033 1.1578e-17
4 0.506819 0.744393 1.74657e-17
4 0.484196 0.733754 2.33535e-17
4 0.461573 0.723115 2.92413e-17
4 0.449589 0.689852 3.51619e-17
4 0.460228 0.667229 3.51947e-17
4 0.470867 0.644606 3.52276e-17
4 0.481507 0.621983 3.52605e-17
4 0.492146 0.59936 3.52933e-17
4 0.502785 0.576737 3.53262e-17
4 0.513425 0.554114 3.53591e-17
4 0.524064 0.531491 3.53919e-17
4 0.534703 0.508867 3.54248e-17
4 0.545343 0.486244 3.54577e-17
4 0.555982 0.463621 3.54905e-17
4 1.73834 0.559562 3.02858e-17
4 1.76066 0.548308 2.78956e-17
4 1.78299 0.537054 2.55054e-17
4 1.80531 0.5258 2.31152e-17
4 1.82763 0.514546 2.0725e-17
4 1.84996 0.503292 1.83348e-17
4 1.87228 0.492039 1.59446e-17
4 1.8946 0.480785 1.35544e-17
4 1.91693 0.469531 1.11642e-17
4 1.93925 0.458277 8.77401e-18
4 1.96158 0.447023 6.38382e-18
4 1.99515 0.458093 9.38576e-19
4 2.00641 0.480417 -2.11647e-18
4 2.01766 0.50274 -5.17151e-18
4 2.02891 0.525064 -8.22655e-18
4 2.04017 0.547388 -1.12816e-17
4 2.05142 0.569712 -1.43366e-17
4 2.06268 0.592035 -1.73917e-17
4 2.07393 0.614359 -2.04467e-17
4 2.08518 0.636683 -2.35018e-17
4 2.09644 0.659007 -2.65568e-17
4 2.10769 0.68133 -2.96118e-17
4 2.09662 0.714908 -3.02767e-17
4 2.0743 0.726162 -2.78865e-17
4 2.05197 0.737416 -2.54963e-17
4 2.02965 0.74867 -2.31061e-17
4 2.00733 0.759924 -2.07159e-17
4 1.985 0.771177 -1.83257e-17
4 1.96268 0.782431 -1.59355e-17
4 1.94036 0.793685 -1.35453e-17
4 1.91803 0.804939 -1.11551e-17
4 1.89571 0.816193 -8.76489e-18
4 1.87338 0.827447 -6.37469e-18
4 1.83981 0.816377 -9.2945e-19
4 1.82855 0.794053 2.12559e-18
4 1.8173 0.77173 5.18063e-18
4 1.80605 0.749406 8.23567e-18
4 1.79479 0.727082 1.12907e-17
4 1.78354 0.704758 1.43458e-17
4 1.77228 0.682435 1.74008e-17
4 1.76103 0.660111 2.04558e-17
4 1.74978 0.637787 2.35109e-17
4 1.73852 0.615463 2.65659e-17
4 1.72727 0.59314 2.9621e-17
4 -2.04443 1.83603 -3.87951e-17
4 -2.02403 1.82158 -3.55539e-17
4 -2.00362 1.80713 -3.23128e-17
4 -1.98322 1.79268 -2.90716e-17
4 -1.96282 1.77824 -2.58304e-17
4 -1.94242 1.76379 -2.25893e-17
4 -1.92202 1.74934 -1.93481e-17
4 -1.90161 1.73489 -1.61069e-17
4 -1.88121 1.72044 -1.28658e-17
4 -1.86081 1.70599 -9.62458e-18
4 -1.84041 1.69154 -6.38342e-18
4 -1.80556 1.6975 6.23828e-19
4 -1.79111 1.7179 4.38991e-18
4 -1.77666 1.7383 8.15598e-18
4 -1.76221 1.7587 1.19221e-17
4 -1.74776 1.77911 1.56881e-17
4 -1.73332 1.79951 1.94542e-17
4 -1.71887 1.81991 2.32203e-17
4 -1.70442 1.84031 2.69864e-17
4 -1.68997 1.86071 3.07524e-17
4 -1.67552 1.88112 3.45185e-17
4 -1.66107 1.90152 3.82846e-17
4 -1.66703 1.93637 3.88095e-17
4 -1.68743 1.95082 3.55683e-17
4 -1.70783 1.96527 3.23272e-17
4 -1.72823 1.97971 2.9086e-17
4 -1.74863 1.99416 2.58448e-17
4 -1.76904 2.00861 2.26037e-17
4 -1.78944 2.02306 1.93625e-17
4 -1.80984 2.03751 1.61213e-17
4 -1.83024 2.05196 1.28802e-17
4 -1.85064 2.0664 9.639e-18
4 -1.87105 2.08085 6.39783e-18
4 -1.9059 2.0749 -6.0941e-19
4 -1.92035 2.0545 -4.37549e-18
4 -1.93479 2.0341 -8.14156e-18
4 -1.94924 2.01369 -1.19076e-17
4 -1.96369 1.99329 -1.56737e-17
4 -1.97814 1.97289 -1.94398e-17
4 -1.99259 1.95249 -2.32059e-17
4 -2.00704 1.93209 -2.69719e-17
4 -2.02149 1.91168 -3.0738e-17
4 -2.03593 1.89128 -3.45041e-17
4 -2.05038 1.87088 -3.82702e-17
4 -0.662531 1.71547 5.91892e-18
4 -0.640935 1.72806 1.69452e-18
4 -0.619338 1.74065 -2.52989e-18
4 -0.597742 1.75325 -6.75429e-18
4 -0.576145 1.76584 -1.09787e-17
4 -0.554549 1.77843 -1.52031e-17
4 -0.532952 1.79103 -1.94275e-17
4 -0.511356 1.80362 -2.36519e-17
4 -0.489759 1.81621 -2.78763e-17
4 -0.468163 1.82881 -3.21007e-17
4 -0.446566 1.8414 -3.63251e-17
4 -0.437563 1.87559 -3.80175e-17
4 -0.450156 1.89719 -3.54856e-17
4 -0.46275 1.91878 -3.29536e-17
4 -0.475343 1.94038 -3.04216e-17
4 -0.487936 1.96197 -2.78896e-17
4 -0.50053 1.98357 -2.53576e-17
4 -0.513123 2.00517 -2.28256e-17
4 -0.525716 2.02676 -2.02936e-17
4 -0.53831 2.04836 -1.77616e-17
4 -0.550903 2.06996 -1.52296e-17
4 -0.563496 2.09155 -1.26977e-17
4 -0.597686 2.10056 -5.94127e-18
4 -0.619283 2.08796 -1.71686e-18
4 -0.640879 2.07537 2.50754e-18
4 -0.662476 2.06278 6.73195e-18
4 -0.684072 2.05018 1.09564e-17
4 -0.705669 2.03759 1.51808e-17
4 -0.727265 2.025 1.94052e-17
4 -0.748862 2.0124 2.36296e-17
4 -0.770458 1.99981 2.7854e-17
4 -0.792055 1.98722 3.20784e-17
4 -0.813651 1.97462 3.63028e-17
4 -0.822654 1.94043 3.79952e-17
4 -0.810061 1.91884 3.54632e-17
4 -0.797468 1.89724 3.29312e-17
4 -0.784874 1.87564 3.03992e-17
4 -0.772281 1.85405 2.78672e-17
4 -0.759688 1.83245 2.53353e-17
4 -0.747094 1.81085 2.28033e-17
4 -0.734501 1.78926 2.02713e-17
4 -0.721908 1.76766 1.77393e-17
4 -0.709314 1.74607 1.52073e-17
4 -0.696721 1.72447 1.26753e-17
4 0.446961 1.83873 -4.38237e-17
4 0.468544 1.82611 -3.2278e-17
4 0.490128 1.8135 -2.07323e-17
4 0.511712 1.80088 -9.18654e-18
4 0.533296 1.78827 2.35918e-18
4 0.55488 1.77565 1.39049e-17
4 0.576464 1.76304 2.54506e-17
4 0.598048 1.75042 3.69964e-17
4 0.619631 1.73781 4.85421e-17
4 0.641215 1.72519 6.00878e-17
4 0.662799 1.71258 7.16335e-17
4 0.696998 1.72155 8.08634e-17
4 0.709613 1.74313 7.85476e-17
4 0.722228 1.76471 7.62317e-17
4 0.734843 1.7863 7.39159e-17
4 0.747458 1.80788 7.16001e-17
4 0.760073 1.82946 6.92842e-17
4 0.772688 1.85105 6.69684e-17
4 0.785303 1.87263 6.46525e-17
4 0.797918 1.89422 6.23367e-17
4 0.810532 1.9158 6.00208e-17
4 0.823147 1.93738 5.7705e-17
4 0.814178 1.97158 4.38434e-17
4 0.792595 1.9842 3.22977e-17
4 0.771011 1.99681 2.0752e-17
4 0.749427 2.00943 9.20623e-18
4 0.727843 2.02204 -2.3395e-18
4 0.706259 2.03466 -1.38852e-17
4 0.684675 2.04727 -2.5431e-17
4 0.663091 2.05989 -3.69767e-17
4 0.641508 2.0725 -4.85224e-17
4 0.619924 2.08512 -6.00681e-17
4 0.59834 2.09773 -7.16139e-17
4 0.564141 2.08876 -8.08437e-17
4 0.551526 2.06718 -7.85279e-17
4 0.538911 2.0456 -7.62121e-17
4 0.526296 2.02401 -7.38962e-17
4 0.513681 2.00243 -7.15804e-17
4 0.501066 1.98084 -6.92645e-17
4 0.488451 1.95926 -6.69487e-17
4 0.475836 1.93768 -6.46328e-17
4 0.463221 1.91609 -6.2317e-17
4 0.450607 1.89451 -6.00011e-17
4 0.437992 1.87292 -5.76853e-17
4 1.84047 1.69853 2.7573e-17
4 1.86089 1.71296 3.06553e-17
4 1.88131 1.72738 3.37375e-17
4 1.90172 1.74181 3.68198e-17
4 1.92214 1.75624 3.9902e-17
4 1.94256 1.77067 4.29843e-17
4 1.96297 1.78509 4.60665e-17
4 1.98339 1.79952 4.91488e-17
4 2.00381 1.81395 5.2231e-17
4 2.02422 1.82838 5.53133e-17
4 2.04464 1.8428 5.83955e-17
4 2.05063 1.87765 5.43163e-17
4 2.0362 1.89806 4.71548e-17
4 2.02178 1.91848 3.99933e-17
4 2.00735 1.9389 3.28318e-17
4 1.99292 1.95931 2.56703e-17
4 1.97849 1.97973 1.85089e-17
4 1.96407 2.00015 1.13474e-17
4 1.94964 2.02057 4.18588e-18
4 1.93521 2.04098 -2.97561e-18
4 1.92078 2.0614 -1.01371e-17
4 1.90636 2.08182 -1.72986e-17
4 1.87151 2.08781 -2.75423e-17
4 1.85109 2.07338 -3.06246e-17
4 1.83068 2.05895 -3.37068e-17
4 1.81026 2.04452 -3.67891e-17
4 1.78984 2.0301 -3.98713e-17
4 1.76943 2.01567 -4.29536e-17
4 1.74901 2.00124 -4.60358e-17
4 1.72859 1.98681 -4.91181e-17
4 1.70818 1.97239 -5.22003e-17
4 1.68776 1.95796 -5.52826e-17
4 1.66734 1.94353 -5.83648e-17
4 1.66135 1.90869 -5.42856e-17
4 1.67578 1.88827 -4.71241e-17
4 1.69021 1.86785 -3.99626e-17
4 1.70464 1.84744 -3.28011e-17
4 1.71906 1.82702 -2.56396e-17
4 1.73349 1.8066 -1.84781e-17
4 1.74792 1.78619 -1.13166e-17
4 1.76234 1.76577 -4.15516e-18
4 1.77677 1.74535 3.00633e-18
4 1.7912 1.72493 1.01678e-17
4 1.80563 1.70452 1.73293e-17
1 -2.15934 -1.85502 0
1 -2.14504 -1.87552 0
1 -2.13074 -1.89603 0
1 -2.11642 -1.91655 0
1 -2.10207 -1.93706 0
1 -2.08771 -1.95756 0
1 -2.07334 -1.97805 0
1 -2.05897 -1.99853 0
1 -2.04461 -2.01901 0
1 -2.03024 -2.03948 0
1 -2.01587 -2.05995 0
1 -2.00151 -2.08042 0
1 -1.98715 -2.10088 0
1 -1.97278 -2.12135 0
1 -1.95842 -2.14181 0
1 -1.94407 -2.16228 0
1 -1.92971 -2.18274 0
1 -2.07198 -1.76211 0
1 -2.09209 -1.777 0
1 -2.11235 -1.79154 0
1 -2.13274 -1.80591 0
1 -2.15319 -1.82023 0
1 -1.89488 -2.18885 0
1 -1.87442 -2.17449 0
1 -1.85395 -2.16013 0
1 -1.83349 -2.14577 0
1 -1.81302 -2.1314 0
1 -1.79256 -2.11704 0
1 -1.7721 -2.10268 0
1 -1.75164 -2.08832 0
1 -1.73118 -2.07396 0
1 -1.71073 -2.05961 0
1 -1.69028 -2.04525 0
1 -1.66983 -2.03091 0
1 -1.64938 -2.01658 0
1 -1.62892 -2.00229 0
1 -1.60845 -1.98801 0
1 -1.58795 -1.97373 0
1 -1.56745 -1.95942 0
1 -2.09717 -0.826585 0
1 -2.10779 -0.851442 0
1 -2.11809 -0.876659 0
1 -2.12772 -0.902132 0
1 -2.13666 -0.927832 0
1 -2.14493 -0.953748 0
1 -2.15252 -0.979866 0
1 -2.15942 -1.00617 0
1 -2.16564 -1.03266 0
1 -2.17115 -1.0593 0
1 -2.17597 -1.08608 0
1 -2.18007 -1.11298 0
1 -2.18347 -1.14 0
1 -2.18614 -1.1671 0
1 -2.18809 -1.19428 0
1 -2.18931 -1.22151 0
1 -2.1898 -1.24877 0
1 -2.18954 -1.27606 0
1 -2.18854 -1.30334 0
1 -2.18678 -1.33061 0
1 -2.18425 -1.35783 0
1 -2.18097 -1.38499 0
1 -2.17691 -1.41207 0
1 -2.17207 -1.43905 0
1 -2.16645 -1.46589 0
1 -2.16004 -1.49259 0
1 -2.15284 -1.51911 0
1 -2.14483 -1.54543 0
1 -2.13602 -1.57152 0
1 -2.12641 -1.59736 0
1 -2.11599 -1.62292 0
1 -2.10476 -1.64818 0
1 -2.0927 -1.67311 0
1 -2.07979 -1.69768 0
1 -2.06608 -1.7219 0
1 -1.56129 -1.92458 0
1 -1.57565 -1.90408 0
1 -1.59007 -1.88359 0
1 -1.60468 -1.8632 0
1 -1.61962 -1.84309 0