14926
 Atoms. Timestep: 3000000
4 -1.98296 -2.14154 -3.52543e-17
4 -1.71765 -2.00152 1.21939e-16
4 -1.85767 -1.7362 3.51972e-17
4 -2.12299 -1.87622 -1.21996e-16
4 -0.847345 -2.02474 -6.4654e-17
4 -0.572667 -2.14537 -1.60113e-17
4 -0.452036 -1.87069 6.46644e-17
4 -0.726714 -1.75006 1.60217e-17
4 0.569068 -2.1489 -2.27834e-17
4 0.844209 -2.02932 -1.79263e-17
4 0.724637 -1.75418 2.27891e-17
4 0.449496 -1.87376 1.7932e-17
4 1.71547 -1.99952 -2.5661e-17
4 1.98078 -2.13954 5.29838e-17
4 2.12081 -1.87423 2.56281e-17
4 1.85549 -1.7342 -5.30167e-17
4 -2.15169 -0.731451 -6.57095e-17
4 -1.87308 -0.84272 1.58187e-17
4 -1.76181 -0.564117 6.57432e-17
4 -2.04042 -0.452849 -1.57849e-17
4 -0.742662 -0.84272 5.58708e-18
4 -0.460184 -0.741695 -1.02681e-16
4 -0.561208 -0.459217 -5.59946e-18
4 -0.843687 -0.560241 1.02668e-16
4 0.464009 -0.74484 -5.68692e-17
4 0.746688 -0.845303 -7.82466e-18
4 0.847151 -0.562624 5.68719e-17
4 0.564472 -0.462161 7.82745e-18
4 1.87705 -0.840543 -1.78893e-17
4 2.15607 -0.730347 1.93207e-17
4 2.04588 -0.451318 1.7877e-17
4 1.76685 -0.561515 -1.9333e-17
4 -2.04345 0.452159 8.29018e-17
4 -1.76512 0.564101 -7.70015e-18
4 -1.87706 0.842434 -8.29197e-17
4 -2.15539 0.730491 7.68231e-18
4 -0.847009 0.565401 -1.30381e-17
4 -0.564488 0.464495 4.04122e-17
4 -0.463582 0.747016 1.30551e-17
4 -0.746103 0.847922 -4.03952e-17
4 0.561633 0.462411 6.63137e-20
4 0.844152 0.563321 -1.17749e-17
4 0.743243 0.84584 -6.51523e-20
4 0.460723 0.744931 1.17761e-17
4 1.76352 0.565822 -4.80057e-18
4 2.04275 0.456144 6.17742e-18
4 2.15243 0.735377 4.79879e-18
4 1.8732 0.845055 -6.1792e-18
4 -2.11949 1.8749 -3.25529e-17
4 -1.85466 1.73397 -5.58249e-18
4 -1.71372 1.9988 3.25625e-17
4 -1.97856 2.13974 5.5921e-18
4 -0.723308 1.75521 5.95612e-18
4 -0.449119 1.87695 -2.01581e-18
4 -0.570859 2.15113 -5.95685e-18
4 -0.845047 2.02939 2.01507e-18
4 0.449545 1.87462 -1.61391e-17
4 0.723635 1.75266 3.92737e-17
4 0.845598 2.02675 1.61487e-17
4 0.571508 2.14871 -3.92641e-17
4 1.85486 1.73911 2.90601e-17
4 2.11981 1.87983 1.01267e-16
4 1.97909 2.14478 -2.90126e-17
4 1.71414 2.00405 -1.0122e-16
1 -2.22415 -1.84467 0
1 -2.0143 -2.24287 0
1 -2.09231 -1.7728 0
1 -1.61632 -2.03317 0
1 -2.11012 -0.830435 0
1 -1.68835 -1.9017 0
1 -2.249 -0.773484 0
1 -0.884821 -1.92626 0
1 -2.08233 -0.355381 0
1 -0.946181 -2.06324 0
1 -1.94356 -0.412432 0
1 -0.533906 -2.24401 0
1 -1.94669 0.411891 0
1 -0.472122 -2.10717 0
1 -2.08527 0.354622 0
1 0.468759 -2.11047 0
1 -2.25286 0.772198 0
1 0.530039 -2.24746 0
1 -2.11422 0.829542 0
1 0.942881 -2.06829 0
1 -2.08899 1.7713 0
1 0.882167 -1.93109 0
1 -2.22071 1.84355 0
1 1.68635 -1.8994 0
1 -2.00954 2.24117 0
1 1.61411 -2.03096 0
1 -1.61226 2.02988 0
1 2.01212 -2.24088 0
1 -1.68497 1.89857 0
1 2.22192 -1.84254 0
1 -0.882171 1.93089 0
1 2.08995 -1.77074 0
1 -0.944023 2.06758 0
1 2.11428 -0.829087 0
1 -0.532606 2.25 0
1 2.25329 -0.772652 0
1 -0.470222 2.1135 0
1 2.08829 -0.35404 0
1 0.470769 2.111 0
1 1.94935 -0.410414 0
1 0.533227 2.24754 0
1 1.94613 0.415155 0
1 0.944617 2.06477 0
1 2.08522 0.358922 0
1 0.882565 1.9281 0
1 2.2495 0.777963 0
1 1.68505 1.90412 0
1 2.11029 0.834107 0
1 1.61273 2.03545 0
1 2.08941 1.77633 0
1 2.01016 2.24619 0
1 2.22108 1.84854 0
1 -1.96982 -0.88287 0
1 -1.95779 -1.7069 0
1 -1.83106 -0.940054 0
1 -1.82598 -1.635 0
1 -1.77357 -0.801429 0
1 -1.7536 -1.76649 0
1 -0.840363 -0.797846 0
1 -0.826617 -1.78807 0
1 -0.788079 -0.938519 0
1 -0.765349 -1.65125 0
1 -0.647092 -0.886919 0
1 -0.629296 -1.7144 0
1 -0.489915 -1.76938 0
1 -0.505074 -0.838684 0
1 -0.353392 -1.83188 0
1 -0.364292 -0.787083 0
1 -0.415481 -1.96853 0
1 -0.416519 -0.646401 0
1 0.412249 -1.97164 0
1 0.420359 -0.64979 0
1 0.350997 -1.83454 0
1 0.368213 -0.79043 0
1 0.487628 -1.77228 0
1 0.50915 -0.84157 0
1 0.627314 -1.71787 0
1 0.651206 -0.889657 0
1 0.763691 -1.6555 0
1 0.792278 -0.941012 0
1 0.824522 -1.79252 0
1 0.844065 -0.800199 0
1 1.75176 -1.76467 0
1 1.77735 -0.798912 0
1 1.8238 -1.63305 0
1 1.83463 -0.937691 0
1 1.95538 -1.70525 0
1 1.97377 -0.881319 0
1 -1.80614 0.464581 0
1 -1.80317 -0.464979 0
1 -1.66764 0.522311 0
1 -1.66447 -0.522095 0
1 -1.72546 0.660827 0
1 -1.72221 -0.660652 0
1 -0.890593 0.660514 0
1 -0.887497 -0.655454 0
1 -0.94278 0.519852 0
1 -0.93947 -0.514713 0
1 -0.802044 0.467952 0
1 -0.798792 -0.462539 0
1 -1.95466 1.70535 0
1 -1.97396 0.88254 0
1 -1.82337 1.63266 0
1 -1.83525 0.939868 0
1 -1.75082 1.76403 0
1 -1.77726 0.801459 0
1 -0.82353 1.79273 0
1 -0.843739 0.802914 0
1 -0.761481 1.65621 0
1 -0.791621 0.943655 0
1 -0.625443 1.71963 0
1 -0.650657 0.892037 0
1 -0.656342 -0.415558 0
1 -0.659695 0.420972 0
1 -0.515657 -0.363432 0
1 -0.518995 0.3687 0
1 -0.463555 -0.504082 0
1 -0.467086 0.509452 0
1 0.467013 -0.507334 0
1 0.463832 0.507333 0
1 0.518721 -0.366484 0
1 0.516051 0.366658 0
1 0.659431 -0.4186 0
1 0.656847 0.418624 0
1 0.801977 -0.465052 0
1 0.799236 0.465759 0
1 0.942812 -0.516903 0
1 0.939934 0.517782 0
1 0.891014 -0.657798 0
1 0.888058 0.658591 0
1 1.72665 -0.657787 0
1 1.72342 0.661964 0
1 1.66966 -0.519029 0
1 1.66641 0.523196 0
1 1.80852 -0.462297 0
1 1.80547 0.4669 0
1 -0.508595 0.843931 0
1 -0.486419 1.77531 0
1 -0.367733 0.792447 0
1 -0.350296 1.83855 0
1 -0.419986 0.651766 0
1 -0.412711 1.97505 0
1 0.417115 0.649862 0
1 0.413487 1.97264 0
1 0.364885 0.790475 0
1 0.350721 1.83628 0
1 0.505689 0.841981 0
1 0.486926 1.77317 0
1 0.647803 0.890038 0
1 0.625851 1.71743 0
1 0.788742 0.941621 0
1 0.761717 1.65365 0
1 0.840803 0.800933 0
1 0.823782 1.79017 0
1 1.77373 0.803119 0
1 1.75074 1.76911 0
1 1.83053 0.942081 0
1 1.82348 1.63782 0
1 1.96969 0.885781 0
1 1.955 1.71011 0
4 -1.96085 -2.12987 -2.21549e-17
4 -1.93874 -2.1182 -9.05546e-18
4 -1.91663 -2.10653 4.04394e-18
4 -1.89452 -2.09487 1.71433e-17
4 -1.87241 -2.0832 3.02427e-17
4 -1.8503 -2.07153 4.33421e-17
4 -1.82819 -2.05986 5.64415e-17
4 -1.80608 -2.04819 6.95409e-17
4 -1.78397 -2.03652 8.26403e-17
4 -1.76186 -2.02486 9.57397e-17
4 -1.73976 -2.01319 1.08839e-16
4 -1.72931 -1.97941 1.1471e-16
4 -1.74098 -1.9573 1.07482e-16
4 -1.75265 -1.93519 1.00253e-16
4 -1.76432 -1.91308 9.30247e-17
4 -1.77599 -1.89097 8.57963e-17
4 -1.78766 -1.86886 7.85678e-17
4 -1.79932 -1.84675 7.13394e-17
4 -1.81099 -1.82464 6.4111e-17
4 -1.82266 -1.80253 5.68825e-17
4 -1.83433 -1.78042 4.96541e-17
4 -1.846 -1.75831 4.24256e-17
4 -1.87978 -1.74787 2.20978e-17
4 -1.90189 -1.75954 8.99837e-18
4 -1.924 -1.77121 -4.10103e-18
4 -1.94611 -1.78287 -1.72004e-17
4 -1.96822 -1.79454 -3.02998e-17
4 -1.99033 -1.80621 -4.33992e-17
4 -2.01244 -1.81788 -5.64986e-17
4 -2.03455 -1.82955 -6.9598e-17
4 -2.05666 -1.84122 -8.26974e-17
4 -2.07877 -1.85289 -9.57968e-17
4 -2.10088 -1.86455 -1.08896e-16
4 -2.11132 -1.89833 -1.14767e-16
4 -2.09965 -1.92044 -1.07539e-16
4 -2.08798 -1.94255 -1.0031e-16
4 -2.07631 -1.96466 -9.30818e-17
4 -2.06464 -1.98677 -8.58534e-17
4 -2.05297 -2.00888 -7.86249e-17
4 -2.04131 -2.03099 -7.13965e-17
4 -2.02964 -2.0531 -6.4168e-17
4 -2.01797 -2.07521 -5.69396e-17
4 -2.0063 -2.09732 -4.97111e-17
4 -1.99463 -2.11943 -4.24827e-17
4 -0.824456 -2.03479 -6.06005e-17
4 -0.801566 -2.04484 -5.65469e-17
4 -0.778676 -2.0549 -5.24934e-17
4 -0.755786 -2.06495 -4.84398e-17
4 -0.732896 -2.075 -4.43862e-17
4 -0.710006 -2.08505 -4.03327e-17
4 -0.687117 -2.09511 -3.62791e-17
4 -0.664227 -2.10516 -3.22255e-17
4 -0.641337 -2.11521 -2.8172e-17
4 -0.618447 -2.12527 -2.41184e-17
4 -0.595557 -2.13532 -2.00649e-17
4 -0.562615 -2.12248 -9.28832e-18
4 -0.552562 -2.09959 -2.56535e-18
4 -0.54251 -2.0767 4.15763e-18
4 -0.532457 -2.05381 1.08806e-17
4 -0.522404 -2.03092 1.76036e-17
4 -0.512352 -2.00803 2.43266e-17
4 -0.502299 -1.98514 3.10495e-17
4 -0.492246 -1.96225 3.77725e-17
4 -0.482194 -1.93936 4.44955e-17
4 -0.472141 -1.91647 5.12185e-17
4 -0.462089 -1.89358 5.79414e-17
4 -0.474926 -1.86064 6.06108e-17
4 -0.497816 -1.85059 5.65573e-17
4 -0.520705 -1.84053 5.25037e-17
4 -0.543595 -1.83048 4.84502e-17
4 -0.566485 -1.82043 4.43966e-17
4 -0.589375 -1.81038 4.0343e-17
4 -0.612265 -1.80032 3.62895e-17
4 -0.635155 -1.79027 3.22359e-17
4 -0.658045 -1.78022 2.81823e-17
4 -0.680934 -1.77017 2.41288e-17
4 -0.703824 -1.76011 2.00752e-17
4 -0.736767 -1.77295 9.29869e-18
4 -0.746819 -1.79584 2.57571e-18
4 -0.756872 -1.81873 -4.14726e-18
4 -0.766925 -1.84162 -1.08702e-17
4 -0.776977 -1.86451 -1.75932e-17
4 -0.78703 -1.8874 -2.43162e-17
4 -0.797082 -1.91029 -3.10392e-17
4 -0.807135 -1.93318 -3.77621e-17
4 -0.817188 -1.95607 -4.44851e-17
4 -0.82724 -1.97896 -5.12081e-17
4 -0.837293 -2.00185 -5.79311e-17
4 0.591996 -2.13893 -2.23787e-17
4 0.614925 -2.12897 -2.19739e-17
4 0.637853 -2.119 -2.15691e-17
4 0.660781 -2.10904 -2.11644e-17
4 0.68371 -2.09907 -2.07596e-17
4 0.706638 -2.08911 -2.03549e-17
4 0.729567 -2.07915 -1.99501e-17
4 0.752495 -2.06918 -1.95453e-17
4 0.775424 -2.05922 -1.91406e-17
4 0.798352 -2.04925 -1.87358e-17
4 0.82128 -2.03929 -1.83311e-17
4 0.834245 -2.0064 -1.45334e-17
4 0.82428 -1.98347 -1.11404e-17
4 0.814316 -1.96054 -7.74746e-18
4 0.804352 -1.93761 -4.3545e-18
4 0.794387 -1.91468 -9.61552e-19
4 0.784423 -1.89175 2.4314e-18
4 0.774459 -1.86883 5.82435e-18
4 0.764494 -1.8459 9.2173e-18
4 0.75453 -1.82297 1.26103e-17
4 0.744566 -1.80004 1.60032e-17
4 0.734602 -1.77711 1.93962e-17
4 0.701709 -1.76415 2.23843e-17
4 0.67878 -1.77411 2.19796e-17
4 0.655852 -1.78408 2.15748e-17
4 0.632924 -1.79404 2.11701e-17
4 0.609995 -1.80401 2.07653e-17
4 0.587067 -1.81397 2.03606e-17
4 0.564138 -1.82393 1.99558e-17
4 0.54121 -1.8339 1.9551e-17
4 0.518281 -1.84386 1.91463e-17
4 0.495353 -1.85383 1.87415e-17
4 0.472425 -1.86379 1.83368e-17
4 0.45946 -1.89668 1.4539e-17
4 0.469425 -1.91961 1.11461e-17
4 0.479389 -1.94254 7.75314e-18
4 0.489353 -1.96547 4.36019e-18
4 0.499318 -1.9884 9.67238e-19
4 0.509282 -2.01133 -2.42571e-18
4 0.519246 -2.03425 -5.81866e-18
4 0.52921 -2.05718 -9.21162e-18
4 0.539175 -2.08011 -1.26046e-17
4 0.549139 -2.10304 -1.59975e-17
4 0.559103 -2.12597 -1.93905e-17
4 1.73758 -2.01119 -1.91073e-17
4 1.75969 -2.02286 -1.25536e-17
4 1.7818 -2.03453 -5.99981e-18
4 1.80391 -2.0462 5.53924e-19
4 1.82602 -2.05787 7.10766e-18
4 1.84813 -2.06953 1.36614e-17
4 1.87024 -2.0812 2.02151e-17
4 1.89235 -2.09287 2.67689e-17
4 1.91446 -2.10454 3.33226e-17
4 1.93657 -2.11621 3.98763e-17
4 1.95867 -2.12788 4.64301e-17
4 1.99245 -2.11743 5.07042e-17
4 2.00412 -2.09532 4.84245e-17
4 2.01579 -2.07322 4.61449e-17
4 2.02746 -2.05111 4.38653e-17
4 2.03913 -2.029 4.15856e-17
4 2.0508 -2.00689 3.9306e-17
4 2.06246 -1.98478 3.70263e-17
4 2.07413 -1.96267 3.47467e-17
4 2.0858 -1.94056 3.2467e-17
4 2.09747 -1.91845 3.01874e-17
4 2.10914 -1.89634 2.79077e-17
4 2.0987 -1.86256 1.90744e-17
4 2.07659 -1.85089 1.25206e-17
4 2.05448 -1.83922 5.96689e-18
4 2.03237 -1.82755 -5.86844e-19
4 2.01026 -1.81588 -7.14058e-18
4 1.98815 -1.80422 -1.36943e-17
4 1.96604 -1.79255 -2.02481e-17
4 1.94393 -1.78088 -2.68018e-17
4 1.92182 -1.76921 -3.33555e-17
4 1.89971 -1.75754 -3.99093e-17
4 1.8776 -1.74587 -4.6463e-17
4 1.84382 -1.75631 -5.07371e-17
4 1.83215 -1.77842 -4.84575e-17
4 1.82048 -1.80053 -4.61778e-17
4 1.80881 -1.82264 -4.38982e-17
4 1.79715 -1.84475 -4.16185e-17
4 1.78548 -1.86686 -3.93389e-17
4 1.77381 -1.88897 -3.70592e-17
4 1.76214 -1.91108 -3.47796e-17
4 1.75047 -1.93319 -3.25e-17
4 1.7388 -1.9553 -3.02203e-17
4 1.72714 -1.97741 -2.79407e-17
4 -2.12847 -0.740724 -5.89154e-17
4 -2.10525 -0.749996 -5.21214e-17
4 -2.08204 -0.759269 -4.53274e-17
4 -2.05882 -0.768541 -3.85334e-17
4 -2.0356 -0.777813 -3.17394e-17
4 -2.01238 -0.787086 -2.49454e-17
4 -1.98917 -0.796358 -1.81514e-17
4 -1.96595 -0.80563 -1.13574e-17
4 -1.94273 -0.814903 -4.56337e-18
4 -1.91952 -0.824175 2.23064e-18
4 -1.8963 -0.833447 9.02465e-18
4 -1.86381 -0.819503 1.9979e-17
4 -1.85454 -0.796286 2.41394e-17
4 -1.84527 -0.773069 2.82998e-17
4 -1.83599 -0.749852 3.24602e-17
4 -1.82672 -0.726635 3.66205e-17
4 -1.81745 -0.703418 4.07809e-17
4 -1.80818 -0.680202 4.49413e-17
4 -1.7989 -0.656985 4.91017e-17
4 -1.78963 -0.633768 5.3262e-17
4 -1.78036 -0.610551 5.74224e-17
4 -1.77109 -0.587334 6.15828e-17
4 -1.78503 -0.554845 5.89492e-17
4 -1.80825 -0.545572 5.21552e-17
4 -1.83147 -0.5363 4.53611e-17
4 -1.85468 -0.527028 3.85671e-17
4 -1.8779 -0.517755 3.17731e-17
4 -1.90112 -0.508483 2.49791e-17
4 -1.92433 -0.499211 1.81851e-17
4 -1.94755 -0.489938 1.13911e-17
4 -1.97077 -0.480666 4.59709e-18
4 -1.99398 -0.471394 -2.19692e-18
4 -2.0172 -0.462121 -8.99093e-18
4 -2.04969 -0.476066 -1.99453e-17
4 -2.05896 -0.499283 -2.41057e-17
4 -2.06823 -0.5225 -2.82661e-17
4 -2.07751 -0.545716 -3.24264e-17
4 -2.08678 -0.568933 -3.65868e-17
4 -2.09605 -0.59215 -4.07472e-17
4 -2.10532 -0.615367 -4.49076e-17
4 -2.1146 -0.638584 -4.9068e-17
4 -2.12387 -0.661801 -5.32283e-17
4 -2.13314 -0.685018 -5.73887e-17
4 -2.14241 -0.708235 -6.15491e-17
4 -0.719123 -0.834301 -3.43524e-18
4 -0.695583 -0.825882 -1.24576e-17
4 -0.672043 -0.817464 -2.14799e-17
4 -0.648503 -0.809045 -3.05022e-17
4 -0.624963 -0.800626 -3.95245e-17
4 -0.601423 -0.792208 -4.85468e-17
4 -0.577883 -0.783789 -5.75692e-17
4 -0.554343 -0.77537 -6.65915e-17
4 -0.530804 -0.766952 -7.56138e-17
4 -0.507264 -0.758533 -8.46361e-17
4 -0.483724 -0.750114 -9.36585e-17
4 -0.468603 -0.718156 -9.45907e-17
4 -0.477021 -0.694616 -8.65006e-17
4 -0.48544 -0.671076 -7.84104e-17
4 -0.493859 -0.647536 -7.03203e-17
4 -0.502277 -0.623996 -6.22302e-17
4 -0.510696 -0.600456 -5.41401e-17
4 -0.519115 -0.576916 -4.605e-17
4 -0.527534 -0.553376 -3.79599e-17
4 -0.535952 -0.529837 -2.98698e-17
4 -0.544371 -0.506297 -2.17797e-17
4 -0.55279 -0.482757 -1.36896e-17
4 -0.584748 -0.467636 3.42287e-18
4 -0.608288 -0.476054 1.24452e-17
4 -0.631828 -0.484473 2.14675e-17
4 -0.655368 -0.492892 3.04898e-17
4 -0.678908 -0.50131 3.95122e-17
4 -0.702448 -0.509729 4.85345e-17
4 -0.725987 -0.518148 5.75568e-17
4 -0.749527 -0.526567 6.65791e-17
4 -0.773067 -0.534985 7.56014e-17
4 -0.796607 -0.543404 8.46238e-17
4 -0.820147 -0.551823 9.36461e-17
4 -0.835268 -0.583781 9.45783e-17
4 -0.826849 -0.607321 8.64882e-17
4 -0.818431 -0.630861 7.83981e-17
4 -0.810012 -0.654401 7.0308e-17
4 -0.801593 -0.677941 6.22179e-17
4 -0.793175 -0.701481 5.41277e-17
4 -0.784756 -0.72502 4.60376e-17
4 -0.776337 -0.74856 3.79475e-17
4 -0.767919 -0.7721 2.98574e-17
4 -0.7595 -0.79564 2.17673e-17
4 -0.751081 -0.81918 1.36772e-17
4 0.487566 -0.753212 -5.27821e-17
4 0.511122 -0.761584 -4.86951e-17
4 0.534679 -0.769956 -4.4608e-17
4 0.558235 -0.778328 -4.0521e-17
4 0.581792 -0.7867 -3.64339e-17
4 0.605349 -0.795072 -3.23469e-17
4 0.628905 -0.803443 -2.82599e-17
4 0.652462 -0.811815 -2.41728e-17
4 0.676018 -0.820187 -2.00858e-17
4 0.699575 -0.828559 -1.59987e-17
4 0.723131 -0.836931 -1.19117e-17
4 0.75506 -0.821747 -2.43327e-18
4 0.763432 -0.79819 2.95811e-18
4 0.771804 -0.774633 8.3495e-18
4 0.780175 -0.751077 1.37409e-17
4 0.788547 -0.72752 1.91323e-17
4 0.796919 -0.703964 2.45236e-17
4 0.805291 -0.680407 2.9915e-17
4 0.813663 -0.656851 3.53064e-17
4 0.822035 -0.633294 4.06978e-17
4 0.830407 -0.609738 4.60892e-17
4 0.838779 -0.586181 5.14806e-17
4 0.823594 -0.554253 5.27849e-17
4 0.800038 -0.545881 4.86979e-17
4 0.776481 -0.537509 4.46108e-17
4 0.752925 -0.529137 4.05238e-17
4 0.729368 -0.520765 3.64367e-17
4 0.705812 -0.512393 3.23497e-17
4 0.682255 -0.504021 2.82627e-17
4 0.658698 -0.495649 2.41756e-17
4 0.635142 -0.487277 2.00886e-17
4 0.611585 -0.478905 1.60015e-17
4 0.588029 -0.470533 1.19145e-17
4 0.5561 -0.485718 2.43606e-18
4 0.547728 -0.509275 -2.95532e-18
4 0.539357 -0.532831 -8.3467e-18
4 0.530985 -0.556388 -1.37381e-17
4 0.522613 -0.579944 -1.91295e-17
4 0.514241 -0.603501 -2.45209e-17
4 0.505869 -0.627057 -2.99122e-17
4 0.497497 -0.650614 -3.53036e-17
4 0.489125 -0.67417 -4.0695e-17
4 0.480753 -0.697727 -4.60864e-17
4 0.472381 -0.721283 -5.14778e-17
4 1.9003 -0.83136 -1.47885e-17
4 1.92355 -0.822177 -1.16877e-17
4 1.9468 -0.812994 -8.58684e-18
4 1.97005 -0.803811 -5.486e-18
4 1.99331 -0.794628 -2.38517e-18
4 2.01656 -0.785445 7.15669e-19
4 2.03981 -0.776262 3.8165e-18
4 2.06306 -0.767079 6.91734e-18
4 2.08632 -0.757896 1.00182e-17
4 2.10957 -0.748713 1.3119e-17
4 2.13282 -0.73953 1.62198e-17
4 2.14689 -0.707094 1.92004e-17
4 2.13771 -0.683842 1.90801e-17
4 2.12852 -0.66059 1.89598e-17
4 2.11934 -0.637337 1.88394e-17
4 2.11016 -0.614085 1.87191e-17
4 2.10098 -0.590833 1.85988e-17
4 2.09179 -0.56758 1.84785e-17
4 2.08261 -0.544328 1.83582e-17
4 2.07343 -0.521076 1.82379e-17
4 2.06424 -0.497823 1.81176e-17
4 2.05506 -0.474571 1.79973e-17
4 2.02262 -0.460502 1.47762e-17
4 1.99937 -0.469685 1.16753e-17
4 1.97612 -0.478868 8.57449e-18
4 1.95287 -0.488051 5.47365e-18
4 1.92962 -0.497234 2.37282e-18
4 1.90636 -0.506417 -7.28017e-19
4 1.88311 -0.5156 -3.82885e-18
4 1.85986 -0.524783 -6.92969e-18
4 1.83661 -0.533966 -1.00305e-17
4 1.81335 -0.543149 -1.31314e-17
4 1.7901 -0.552332 -1.62322e-17
4 1.77603 -0.584767 -1.92127e-17
4 1.78521 -0.60802 -1.90924e-17
4 1.7944 -0.631272 -1.89721e-17
4 1.80358 -0.654524 -1.88518e-17
4 1.81276 -0.677777 -1.87315e-17
4 1.82195 -0.701029 -1.86112e-17
4 1.83113 -0.724281 -1.84909e-17
4 1.84031 -0.747534 -1.83706e-17
4 1.8495 -0.770786 -1.82503e-17
4 1.85868 -0.794038 -1.813e-17
4 1.86786 -0.817291 -1.80096e-17
4 -2.02026 0.461488 7.53517e-17
4 -1.99706 0.470816 6.78015e-17
4 -1.97387 0.480145 6.02513e-17
4 -1.95067 0.489473 5.27012e-17
4 -1.92748 0.498802 4.5151e-17
4 -1.90428 0.50813 3.76008e-17
4 -1.88109 0.517459 3.00507e-17
4 -1.85789 0.526787 2.25005e-17
4 -1.8347 0.536116 1.49503e-17
4 -1.81151 0.545444 7.40018e-18
4 -1.78831 0.554773 -1.49984e-19
4 -1.77445 0.587296 -1.39684e-17
4 -1.78377 0.61049 -2.02367e-17
4 -1.7931 0.633684 -2.6505e-17
4 -1.80243 0.656879 -3.27733e-17
4 -1.81176 0.680073 -3.90416e-17
4 -1.82109 0.703268 -4.53099e-17
4 -1.83042 0.726462 -5.15782e-17
4 -1.83975 0.749656 -5.78465e-17
4 -1.84907 0.772851 -6.41148e-17
4 -1.8584 0.796045 -7.03831e-17
4 -1.86773 0.819239 -7.66514e-17
4 -1.90025 0.833105 -7.53695e-17
4 -1.92345 0.823777 -6.78193e-17
4 -1.94664 0.814448 -6.02692e-17
4 -1.96984 0.80512 -5.2719e-17
4 -1.99303 0.795791 -4.51688e-17
4 -2.01623 0.786463 -3.76187e-17
4 -2.03942 0.777134 -3.00685e-17
4 -2.06261 0.767806 -2.25184e-17
4 -2.08581 0.758477 -1.49682e-17
4 -2.109 0.749149 -7.41802e-18
4 -2.1322 0.73982 1.32142e-19
4 -2.14606 0.707297 1.39506e-17
4 -2.13673 0.684103 2.02189e-17
4 -2.12741 0.660908 2.64872e-17
4 -2.11808 0.637714 3.27555e-17
4 -2.10875 0.61452 3.90238e-17
4 -2.09942 0.591325 4.52921e-17
4 -2.09009 0.568131 5.15604e-17
4 -2.08076 0.544937 5.78287e-17
4 -2.07144 0.521742 6.40969e-17
4 -2.06211 0.498548 7.03652e-17
4 -2.05278 0.475353 7.66335e-17
4 -0.823465 0.556992 -8.58392e-18
4 -0.799922 0.548583 -4.12973e-18
4 -0.776378 0.540174 3.24456e-19
4 -0.752835 0.531766 4.77865e-18
4 -0.729291 0.523357 9.23284e-18
4 -0.705748 0.514948 1.3687e-17
4 -0.682205 0.506539 1.81412e-17
4 -0.658661 0.49813 2.25954e-17
4 -0.635118 0.489722 2.70496e-17
4 -0.611574 0.481313 3.15038e-17
4 -0.588031 0.472904 3.5958e-17
4 -0.556079 0.488039 3.81324e-17
4 -0.54767 0.511582 3.58527e-17
4 -0.539261 0.535125 3.35729e-17
4 -0.530852 0.558669 3.12931e-17
4 -0.522444 0.582212 2.90134e-17
4 -0.514035 0.605756 2.67336e-17
4 -0.505626 0.629299 2.44539e-17
4 -0.497217 0.652842 2.21741e-17
4 -0.488808 0.676386 1.98944e-17
4 -0.4804 0.699929 1.76146e-17
4 -0.471991 0.723473 1.53349e-17
4 -0.487126 0.755425 8.60091e-18
4 -0.510669 0.763834 4.14672e-18
4 -0.534212 0.772242 -3.07472e-19
4 -0.557756 0.780651 -4.76166e-18
4 -0.581299 0.78906 -9.21585e-18
4 -0.604843 0.797469 -1.367e-17
4 -0.628386 0.805878 -1.81242e-17
4 -0.651929 0.814286 -2.25784e-17
4 -0.675473 0.822695 -2.70326e-17
4 -0.699016 0.831104 -3.14868e-17
4 -0.72256 0.839513 -3.5941e-17
4 -0.754512 0.824378 -3.81154e-17
4 -0.762921 0.800835 -3.58357e-17
4 -0.771329 0.777291 -3.35559e-17
4 -0.779738 0.753748 -3.12762e-17
4 -0.788147 0.730205 -2.89964e-17
4 -0.796556 0.706661 -2.67166e-17
4 -0.804965 0.683118 -2.44369e-17
4 -0.813373 0.659574 -2.21571e-17
4 -0.821782 0.636031 -1.98774e-17
4 -0.830191 0.612487 -1.75976e-17
4 -0.8386 0.588944 -1.53179e-17
4 0.585176 0.47082 -9.20457e-19
4 0.608719 0.479229 -1.90723e-18
4 0.632263 0.487638 -2.894e-18
4 0.655806 0.496048 -3.88077e-18
4 0.679349 0.504457 -4.86754e-18
4 0.702893 0.512866 -5.85431e-18
4 0.726436 0.521275 -6.84108e-18
4 0.749979 0.529684 -7.82785e-18
4 0.773522 0.538093 -8.81462e-18
4 0.797066 0.546502 -9.80139e-18
4 0.820609 0.554911 -1.07882e-17
4 0.835743 0.586864 -1.07991e-17
4 0.827334 0.610407 -9.8233e-18
4 0.818925 0.63395 -8.84749e-18
4 0.810516 0.657494 -7.87167e-18
4 0.802107 0.681037 -6.89586e-18
4 0.793698 0.70458 -5.92004e-18
4 0.785288 0.728124 -4.94423e-18
4 0.776879 0.751667 -3.96841e-18
4 0.76847 0.77521 -2.9926e-18
4 0.760061 0.798753 -2.01678e-18
4 0.751652 0.822297 -1.04097e-18
4 0.719699 0.837431 9.21618e-19
4 0.696156 0.829022 1.90839e-18
4 0.672613 0.820613 2.89516e-18
4 0.64907 0.812204 3.88193e-18
4 0.625526 0.803794 4.8687e-18
4 0.601983 0.795385 5.85547e-18
4 0.57844 0.786976 6.84224e-18
4 0.554896 0.778567 7.82901e-18
4 0.531353 0.770158 8.81578e-18
4 0.50781 0.761749 9.80255e-18
4 0.484267 0.75334 1.07893e-17
4 0.469132 0.721387 1.08003e-17
4 0.477542 0.697844 9.82446e-18
4 0.485951 0.674301 8.84865e-18
4 0.49436 0.650757 7.87283e-18
4 0.502769 0.627214 6.89702e-18
4 0.511178 0.603671 5.9212e-18
4 0.519587 0.580127 4.94539e-18
4 0.527996 0.556584 3.96957e-18
4 0.536405 0.533041 2.99376e-18
4 0.544815 0.509498 2.01794e-18
4 0.553224 0.485954 1.04213e-18
4 1.78679 0.556683 -3.88574e-18
4 1.81006 0.547543 -2.97091e-18
4 1.83333 0.538403 -2.05607e-18
4 1.8566 0.529263 -1.14124e-18
4 1.87987 0.520123 -2.26408e-19
4 1.90314 0.510983 6.88424e-19
4 1.9264 0.501844 1.60326e-18
4 1.94967 0.492704 2.51809e-18
4 1.97294 0.483564 3.43292e-18
4 1.99621 0.474424 4.34776e-18
4 2.01948 0.465284 5.26259e-18
4 2.05189 0.479414 6.06253e-18
4 2.06103 0.502683 5.94765e-18
4 2.07017 0.525953 5.83276e-18
4 2.07931 0.549222 5.71788e-18
4 2.08845 0.572491 5.60299e-18
4 2.09759 0.595761 5.48811e-18
4 2.10673 0.61903 5.37322e-18
4 2.11587 0.642299 5.25834e-18
4 2.12501 0.665569 5.14345e-18
4 2.13415 0.688838 5.02857e-18
4 2.14329 0.712107 4.91368e-18
4 2.12916 0.744517 3.88396e-18
4 2.10589 0.753656 2.96913e-18
4 2.08262 0.762796 2.0543e-18
4 2.05935 0.771936 1.13946e-18
4 2.03608 0.781076 2.24631e-19
4 2.01281 0.790216 -6.90202e-19
4 1.98954 0.799356 -1.60503e-18
4 1.96627 0.808496 -2.51987e-18
4 1.94301 0.817635 -3.4347e-18
4 1.91974 0.826775 -4.34953e-18
4 1.89647 0.835915 -5.26437e-18
4 1.86406 0.821785 -6.06431e-18
4 1.85492 0.798516 -5.94943e-18
4 1.84578 0.775247 -5.83454e-18
4 1.83664 0.751977 -5.71966e-18
4 1.8275 0.728708 -5.60477e-18
4 1.81836 0.705439 -5.48988e-18
4 1.80922 0.682169 -5.375e-18
4 1.80008 0.6589 -5.26011e-18
4 1.79094 0.635631 -5.14523e-18
4 1.7818 0.612361 -5.03034e-18
4 1.77266 0.589092 -4.91546e-18
4 -2.09742 1.86316 -3.03054e-17
4 -2.07535 1.85141 -2.80578e-17
4 -2.05328 1.83967 -2.58103e-17
4 -2.03122 1.82792 -2.35628e-17
4 -2.00915 1.81618 -2.13152e-17
4 -1.98708 1.80443 -1.90677e-17
4 -1.96501 1.79269 -1.68202e-17
4 -1.94294 1.78094 -1.45726e-17
4 -1.92087 1.7692 -1.23251e-17
4 -1.8988 1.75746 -1.00776e-17
4 -1.87673 1.74571 -7.83002e-18
4 -1.84291 1.75604 -2.40374e-18
4 -1.83117 1.77811 7.75017e-19
4 -1.81943 1.80017 3.95377e-18
4 -1.80768 1.82224 7.13252e-18
4 -1.79594 1.84431 1.03113e-17
4 -1.78419 1.86638 1.349e-17
4 -1.77245 1.88845 1.66688e-17
4 -1.7607 1.91052 1.98475e-17
4 -1.74896 1.93259 2.30263e-17
4 -1.73721 1.95466 2.6205e-17
4 -1.72547 1.97673 2.93838e-17
4 -1.73579 2.01055 3.0315e-17
4 -1.75786 2.02229 2.80675e-17
4 -1.77993 2.03403 2.58199e-17
4 -1.802 2.04578 2.35724e-17
4 -1.82407 2.05752 2.13249e-17
4 -1.84614 2.06927 1.90773e-17
4 -1.86821 2.08101 1.68298e-17
4 -1.89028 2.09276 1.45822e-17
4 -1.91235 2.1045 1.23347e-17
4 -1.93442 2.11625 1.00872e-17
4 -1.95649 2.12799 7.83964e-18
4 -1.9903 2.11767 2.41335e-18
4 -2.00205 2.0956 -7.654e-19
4 -2.01379 2.07353 -3.94415e-18
4 -2.02554 2.05146 -7.1229e-18
4 -2.03728 2.02939 -1.03017e-17
4 -2.04903 2.00732 -1.34804e-17
4 -2.06077 1.98525 -1.66592e-17
4 -2.07251 1.96318 -1.98379e-17
4 -2.08426 1.94111 -2.30167e-17
4 -2.096 1.91904 -2.61954e-17
4 -2.10775 1.89697 -2.93742e-17
4 -0.700459 1.76535 5.2918e-18
4 -0.67761 1.7755 4.62747e-18
4 -0.654761 1.78564 3.96314e-18
4 -0.631911 1.79579 3.29881e-18
4 -0.609062 1.80593 2.63449e-18
4 -0.586213 1.81608 1.97016e-18
4 -0.563364 1.82622 1.30583e-18
4 -0.540515 1.83637 6.41504e-19
4 -0.517666 1.84651 -2.28235e-20
4 -0.494817 1.85666 -6.87151e-19
4 -0.471968 1.8668 -1.35148e-18
4 -0.459264 1.89979 -2.34423e-18
4 -0.469409 1.92264 -2.67265e-18
4 -0.479554 1.94549 -3.00107e-18
4 -0.489699 1.96834 -3.32949e-18
4 -0.499844 1.99119 -3.65791e-18
4 -0.509989 2.01404 -3.98633e-18
4 -0.520134 2.03689 -4.31475e-18
4 -0.530279 2.05974 -4.64317e-18
4 -0.540424 2.08259 -4.97159e-18
4 -0.550569 2.10544 -5.30001e-18
4 -0.560714 2.12828 -5.62843e-18
4 -0.593708 2.14099 -5.29253e-18
4 -0.616557 2.13084 -4.6282e-18
4 -0.639406 2.1207 -3.96387e-18
4 -0.662255 2.11055 -3.29954e-18
4 -0.685104 2.10041 -2.63522e-18
4 -0.707953 2.09026 -1.97089e-18
4 -0.730802 2.08012 -1.30656e-18
4 -0.753651 2.06997 -6.42234e-19
4 -0.7765 2.05983 2.20929e-20
4 -0.799349 2.04968 6.8642e-19
4 -0.822198 2.03954 1.35075e-18
4 -0.834903 2.00655 2.3435e-18
4 -0.824758 1.9837 2.67192e-18
4 -0.814613 1.96085 3.00034e-18
4 -0.804468 1.938 3.32876e-18
4 -0.794323 1.91515 3.65718e-18
4 -0.784178 1.8923 3.9856e-18
4 -0.774033 1.86945 4.31402e-18
4 -0.763888 1.8466 4.64244e-18
4 -0.753743 1.82375 4.97086e-18
4 -0.743598 1.8009 5.29928e-18
4 -0.733453 1.77805 5.6277e-18
4 0.472386 1.86446 -1.15214e-17
4 0.495227 1.85429 -6.90367e-18
4 0.518068 1.84413 -2.28594e-18
4 0.540909 1.83397 2.3318e-18
4 0.563749 1.8238 6.94953e-18
4 0.58659 1.81364 1.15673e-17
4 0.609431 1.80347 1.6185e-17
4 0.632272 1.79331 2.08027e-17
4 0.655113 1.78315 2.54205e-17
4 0.677953 1.77298 3.00382e-17
4 0.700794 1.76282 3.46559e-17
4 0.733799 1.7755 3.73466e-17
4 0.743962 1.79834 3.54195e-17
4 0.754126 1.82118 3.34924e-17
4 0.764289 1.84402 3.15653e-17
4 0.774453 1.86686 2.96383e-17
4 0.784616 1.8897 2.77112e-17
4 0.79478 1.91254 2.57841e-17
4 0.804943 1.93538 2.3857e-17
4 0.815107 1.95822 2.19299e-17
4 0.82527 1.98107 2.00029e-17
4 0.835434 2.00391 1.80758e-17
4 0.822757 2.03691 1.1531e-17
4 0.799916 2.04707 6.91324e-18
4 0.777075 2.05724 2.29551e-18
4 0.754234 2.0674 -2.32222e-18
4 0.731393 2.07756 -6.93996e-18
4 0.708553 2.08773 -1.15577e-17
4 0.685712 2.09789 -1.61754e-17
4 0.662871 2.10806 -2.07932e-17
4 0.64003 2.11822 -2.54109e-17
4 0.617189 2.12838 -3.00286e-17
4 0.594349 2.13855 -3.46464e-17
4 0.561344 2.12587 -3.7337e-17
4 0.551181 2.10303 -3.54099e-17
4 0.541017 2.08019 -3.34828e-17
4 0.530854 2.05735 -3.15558e-17
4 0.52069 2.03451 -2.96287e-17
4 0.510527 2.01166 -2.77016e-17
4 0.500363 1.98882 -2.57745e-17
4 0.4902 1.96598 -2.38475e-17
4 0.480036 1.94314 -2.19204e-17
4 0.469872 1.9203 -1.99933e-17
4 0.459709 1.89746 -1.80662e-17
4 1.87694 1.75083 3.50773e-17
4 1.89902 1.76256 4.10946e-17
4 1.9211 1.77429 4.71119e-17
4 1.94318 1.78601 5.31291e-17
4 1.96526 1.79774 5.91464e-17
4 1.98734 1.80947 6.51637e-17
4 2.00942 1.82119 7.11809e-17
4 2.0315 1.83292 7.71982e-17
4 2.05357 1.84465 8.32155e-17
4 2.07565 1.85637 8.92327e-17
4 2.09773 1.8681 9.525e-17
4 2.10808 1.90191 9.04106e-17
4 2.09636 1.92399 7.95539e-17
4 2.08463 1.94606 6.86973e-17
4 2.0729 1.96814 5.78406e-17
4 2.06118 1.99022 4.6984e-17
4 2.04945 2.0123 3.61273e-17
4 2.03772 2.03438 2.52707e-17
4 2.026 2.05646 1.4414e-17
4 2.01427 2.07854 3.55736e-18
4 2.00254 2.10062 -7.2993e-18
4 1.99082 2.1227 -1.8156e-17
4 1.95701 2.13305 -3.50299e-17
4 1.93493 2.12132 -4.10471e-17
4 1.91285 2.1096 -4.70644e-17
4 1.89077 2.09787 -5.30817e-17
4 1.8687 2.08614 -5.90989e-17
4 1.84662 2.07442 -6.51162e-17
4 1.82454 2.06269 -7.11335e-17
4 1.80246 2.05096 -7.71507e-17
4 1.78038 2.03924 -8.3168e-17
4 1.7583 2.02751 -8.91852e-17
4 1.73622 2.01578 -9.52025e-17
4 1.72587 1.98198 -9.03631e-17
4 1.7376 1.9599 -7.95065e-17
4 1.74932 1.93782 -6.86498e-17
4 1.76105 1.91574 -5.77932e-17
4 1.77278 1.89366 -4.69365e-17
4 1.7845 1.87158 -3.60798e-17
4 1.79623 1.8495 -2.52232e-17
4 1.80796 1.82742 -1.43665e-17
4 1.81968 1.80534 -3.50988e-18
4 1.83141 1.78326 7.34677e-18
4 1.84314 1.76119 1.82034e-17
1 -2.21251 -1.86678 0
1 -2.20089 -1.88891 0
1 -2.18927 -1.91105 0
1 -2.17765 -1.9332 0
1 -2.16599 -1.95534 0
1 -2.15433 -1.97748 0
1 -2.14266 -1.99961 0
1 -2.13099 -2.02174 0
1 -2.11932 -2.04386 0
1 -2.10764 -2.06598 0
1 -2.09597 -2.08809 0
1 -2.0843 -2.1102 0
1 -2.07263 -2.13232 0
1 -2.06097 -2.15443 0
1 -2.0493 -2.17654 0
1 -2.03763 -2.19865 0
1 -2.02597 -2.22076 0
1 -2.11406 -1.78575 0
1 -2.13593 -1.79788 0
1 -2.15789 -1.80971 0
1 -2.17994 -1.82139 0
1 -2.20203 -1.83303 0
1 -1.99219 -2.2312 0
1 -1.97008 -2.21954 0
1 -1.94797 -2.20787 0
1 -1.92586 -2.1962 0
1 -1.90375 -2.18454 0
1 -1.88164 -2.17287 0
1 -1.85953 -2.1612 0
1 -1.83742 -2.14953 0
1 -1.81532 -2.13787 0
1 -1.79322 -2.1262 0
1 -1.77112 -2.11454 0
1 -1.74902 -2.10289 0
1 -1.72693 -2.09124 0
1 -1.70483 -2.07963 0
1 -1.68272 -2.06803 0
1 -1.66059 -2.05644 0
1 -1.63845 -2.04482 0
1 -2.11926 -0.855264 0
1 -2.1278 -0.880391 0
1 -2.1361 -0.905774 0
1 -2.14389 -0.931322 0
1 -2.15116 -0.957015 0
1 -2.15792 -0.982847 0
1 -2.16415 -1.00881 0
1 -2.16985 -1.03491 0
1 -2.17503 -1.06112 0
1 -2.17967 -1.08745 0
1 -2.18376 -1.11387 0
1 -2.18731 -1.14038 0
1 -2.19031 -1.16698 0
1 -2.19274 -1.19364 0
1 -2.19461 -1.22037 0
1 -2.19591 -1.24714 0
1 -2.19663 -1.27395 0
1 -2.19676 -1.30079 0
1 -2.1963 -1.32764 0
1 -2.19525 -1.35449 0
1 -2.19359 -1.38133 0
1 -2.19132 -1.40814 0
1 -2.18844 -1.43492 0
1 -2.18493 -1.46164 0
1 -2.18078 -1.4883 0
1 -2.176 -1.51487 0
1 -2.17058 -1.54135 0
1 -2.16451 -1.5677 0
1 -2.15778 -1.59393 0
1 -2.15039 -1.62 0
1 -2.14233 -1.64591 0
1 -2.1336 -1.67163 0
1 -2.12418 -1.69716 0
1 -2.11406 -1.72246 0
1 -2.10326 -1.74756 0
1 -1.62796 -2.01103 0
1 -1.63962 -1.9889 0
1 -1.65134 -1.96676 0
1 -1.6632 -1.94468 0
1 -1.67536 -1.9228 0
1 -2.22577 -0.782724 0
1 -2.20256 -0.791974 0