14926
 Atoms. Timestep: 1000000
4 -2.13262 -2.18726 -2.30012e-17
4 -1.83718 -2.13516 2.63339e-17
4 -1.88927 -1.83972 2.29969e-17
4 -2.18471 -1.89181 -2.63382e-17
4 -0.843081 -2.14003 0
4 -0.54629 -2.1838 0
4 -0.502525 -1.887 0
4 -0.799316 -1.84324 0
4 0.544921 -2.18495 -5.8265e-19
4 0.841774 -2.14161 -2.63213e-17
4 0.798432 -1.84475 5.89483e-19
4 0.501579 -1.8881 2.63281e-17
4 1.83619 -2.13455 0
4 2.13166 -2.18649 0
4 2.1836 -1.89102 0
4 1.88813 -1.83908 0
4 -2.18561 -0.797035 8.81306e-31
4 -1.88864 -0.839591 -1.19109e-30
4 -1.84609 -0.542625 -9.39083e-31
4 -2.14305 -0.500069 1.13774e-30
4 -0.802512 -0.837467 1.90433e-17
4 -0.504689 -0.801385 -2.73263e-17
4 -0.540771 -0.503563 -1.90479e-17
4 -0.838593 -0.539645 2.73217e-17
4 0.506137 -0.802569 0
4 0.803975 -0.83852 0
4 0.839926 -0.540682 0
4 0.542087 -0.504731 0
4 1.88997 -0.838705 9.644e-18
4 2.187 -0.796653 -3.63215e-18
4 2.14495 -0.499615 -9.63861e-18
4 1.84791 -0.541667 3.63754e-18
4 -2.14408 0.501254 4.76214e-17
4 -1.84716 0.54415 -9.44089e-18
4 -1.89006 0.841067 -4.76321e-17
4 -2.18698 0.798171 9.43022e-18
4 -0.839756 0.543305 1.05194e-19
4 -0.541941 0.507166 -4.28717e-17
4 -0.505802 0.804982 -1.20633e-19
4 -0.803617 0.84112 4.28563e-17
4 0.541111 0.506237 3.53908e-17
4 0.838934 0.542311 -1.15798e-17
4 0.80286 0.840134 -3.53937e-17
4 0.505037 0.80406 1.15768e-17
4 1.84681 0.544497 7.34835e-18
4 2.14387 0.502584 -4.28197e-19
4 2.18578 0.799642 -7.34621e-18
4 1.88873 0.841555 4.30335e-19
4 -2.18371 1.89305 7.32096e-18
4 -1.88831 1.84068 -7.41397e-19
4 -1.83594 2.13607 -7.3241e-18
4 -2.13133 2.18845 7.38252e-19
4 -0.798106 1.84674 -4.74174e-20
4 -0.501391 1.89102 1.4716e-18
4 -0.545665 2.18773 4.82506e-20
4 -0.84238 2.14346 -1.47077e-18
4 0.501765 1.89 -4.59354e-18
4 0.798464 1.84562 3.69577e-17
4 0.842847 2.14232 4.60285e-18
4 0.546148 2.1867 -3.69484e-17
4 1.88868 1.84196 -1.40717e-18
4 2.1841 1.89419 3.3283e-17
4 2.13187 2.18961 1.41973e-18
4 1.83645 2.13738 -3.32704e-17
1 -2.27152 -1.83092 0
1 -2.19346 -2.27414 0
1 -2.1239 -1.80409 0
1 -1.75034 -2.19613 0
1 -2.12201 -0.882396 0
1 -1.77718 -2.04861 0
1 -2.27044 -0.860675 0
1 -0.905926 -2.05493 0
1 -2.20669 -0.415196 0
1 -0.928221 -2.20329 0
1 -2.05828 -0.437019 0
1 -0.482975 -2.26886 0
1 -2.05931 0.438296 0
1 -0.460555 -2.12051 0
1 -2.20766 0.416332 0
1 0.459293 -2.12161 0
1 -2.27191 0.861691 0
1 0.481518 -2.26996 0
1 -2.12353 0.883607 0
1 0.92681 -2.20502 0
1 -2.1229 1.80527 0
1 0.904762 -2.05664 0
1 -2.27053 1.8322 0
1 1.77616 -2.04791 0
1 -2.19209 2.27539 0
1 1.74935 -2.19549 0
1 -1.74901 2.19689 0
1 2.19254 -2.27334 0
1 -1.77605 2.04934 0
1 2.27034 -1.83004 0
1 -0.905076 2.0583 0
1 2.12266 -1.80333 0
1 -0.927614 2.2066 0
1 2.12331 -0.881892 0
1 -0.482528 2.27294 0
1 2.27176 -0.860412 0
1 -0.459824 2.12466 0
1 2.20877 -0.414872 0
1 0.460278 2.1236 0
1 2.06035 -0.436402 0
1 0.483012 2.2719 0
1 2.05923 0.439347 0
1 0.928118 2.2054 0
1 2.20769 0.417853 0
1 0.905501 2.05709 0
1 2.27048 0.863466 0
1 1.77647 2.05079 0
1 2.122 0.884854 0
1 1.74958 2.19831 0
1 2.12334 1.80644 0
1 2.19267 2.27652 0
1 2.27094 1.83334 0
1 -1.97344 -0.902633 0
1 -1.97592 -1.77975 0
1 -1.82499 -0.924411 0
1 -1.82831 -1.75292 0
1 -1.80289 -0.776028 0
1 -1.80132 -1.90049 0
1 -0.886578 -0.772083 0
1 -0.884878 -1.90642 0
1 -0.867956 -0.920928 0
1 -0.862638 -1.75813 0
1 -0.719065 -0.902447 0
1 -0.71443 -1.78106 0
1 -0.565783 -1.80094 0
1 -0.57005 -0.885311 0
1 -0.417473 -1.82367 0
1 -0.421218 -0.866845 0
1 -0.440008 -1.97199 0
1 -0.43988 -0.718001 0
1 0.438819 -1.97302 0
1 0.441372 -0.719248 0
1 0.416615 -1.82463 0
1 0.422696 -0.868068 0
1 0.564935 -1.80199 0
1 0.571542 -0.886397 0
1 0.713644 -1.78236 0
1 0.720553 -0.903524 0
1 0.861889 -1.75973 0
1 0.869447 -0.921955 0
1 0.883961 -1.90805 0
1 0.887939 -0.773107 0
1 1.80036 -1.8999 0
1 1.80419 -0.774978 0
1 1.82714 -1.75232 0
1 1.82617 -0.923406 0
1 1.97472 -1.7792 0
1 1.97467 -0.901975 0
1 -1.91061 0.458455 0
1 -1.90964 -0.457121 0
1 -1.76226 0.480572 0
1 -1.76126 -0.478954 0
1 -1.78448 0.628931 0
1 -1.78342 -0.627321 0
1 -0.904592 0.626703 0
1 -0.903531 -0.623038 0
1 -0.923207 0.477851 0
1 -0.922028 -0.47417 0
1 -0.774374 0.459207 0
1 -0.773184 -0.455473 0
1 -1.97499 1.78093 0
1 -1.97493 0.904071 0
1 -1.82746 1.75381 0
1 -1.8265 0.92596 0
1 -1.80045 1.90136 0
1 -1.80416 0.777617 0
1 -0.883851 1.90977 0
1 -0.887681 0.775728 0
1 -0.861267 1.76151 0
1 -0.869059 0.924575 0
1 -0.713049 1.78458 0
1 -0.720185 0.906029 0
1 -0.624107 -0.438769 0
1 -0.625328 0.442442 0
1 -0.47527 -0.420135 0
1 -0.476484 0.423709 0
1 -0.456619 -0.568957 0
1 -0.457867 0.572545 0
1 0.45801 -0.5702 0
1 0.4569 0.571654 0
1 0.476544 -0.421342 0
1 0.475611 0.422815 0
1 0.625386 -0.439999 0
1 0.624471 0.4414 0
1 0.774453 -0.456564 0
1 0.773543 0.458188 0
1 0.923318 -0.475167 0
1 0.922377 0.476842 0
1 0.904862 -0.624065 0
1 0.903892 0.625718 0
1 1.78502 -0.626205 0
1 1.78399 0.629007 0
1 1.7632 -0.477819 0
1 1.76213 0.480623 0
1 1.91162 -0.456173 0
1 1.91057 0.459121 0
1 -0.571172 0.888893 0
1 -0.564443 1.80476 0
1 -0.422326 0.870424 0
1 -0.416214 1.82783 0
1 -0.441043 0.721582 0
1 -0.438931 1.97612 0
1 0.440273 0.720738 0
1 0.439432 1.97512 0
1 0.421588 0.869559 0
1 0.41658 1.82684 0
1 0.57042 0.888011 0
1 0.564829 1.80382 0
1 0.719454 0.905092 0
1 0.713397 1.78359 0
1 0.868323 0.923589 0
1 0.861591 1.76037 0
1 0.886892 0.77476 0
1 0.884181 1.90863 0
1 1.80305 0.777752 0
1 1.80072 1.90267 0
1 1.82486 0.9262 0
1 1.82778 1.75512 0
1 1.97338 0.904793 0
1 1.97535 1.78205 0
4 -2.108 -2.18291 -1.88899e-17
4 -2.08338 -2.17857 -1.47787e-17
4 -2.05876 -2.17423 -1.06674e-17
4 -2.03414 -2.16989 -6.55617e-18
4 -2.00952 -2.16555 -2.44491e-18
4 -1.9849 -2.16121 1.66635e-18
4 -1.96028 -2.15687 5.77761e-18
4 -1.93566 -2.15253 9.88887e-18
4 -1.91104 -2.14819 1.40001e-17
4 -1.88642 -2.14385 1.81114e-17
4 -1.8618 -2.13951 2.22226e-17
4 -1.84152 -2.11054 2.60558e-17
4 -1.84586 -2.08592 2.57777e-17
4 -1.8502 -2.0613 2.54997e-17
4 -1.85454 -2.03668 2.52216e-17
4 -1.85888 -2.01206 2.49435e-17
4 -1.86322 -1.98744 2.46654e-17
4 -1.86756 -1.96282 2.43873e-17
4 -1.8719 -1.9382 2.41092e-17
4 -1.87624 -1.91358 2.38312e-17
4 -1.88058 -1.88896 2.35531e-17
4 -1.88493 -1.86434 2.3275e-17
4 -1.91389 -1.84406 1.88856e-17
4 -1.93851 -1.8484 1.47744e-17
4 -1.96313 -1.85274 1.06631e-17
4 -1.98775 -1.85709 6.55187e-18
4 -2.01237 -1.86143 2.44061e-18
4 -2.03699 -1.86577 -1.67065e-18
4 -2.06161 -1.87011 -5.78191e-18
4 -2.08623 -1.87445 -9.89317e-18
4 -2.11085 -1.87879 -1.40044e-17
4 -2.13547 -1.88313 -1.81157e-17
4 -2.16009 -1.88747 -2.22269e-17
4 -2.18037 -1.91643 -2.60601e-17
4 -2.17603 -1.94105 -2.5782e-17
4 -2.17169 -1.96567 -2.5504e-17
4 -2.16735 -1.99029 -2.52259e-17
4 -2.163 -2.01491 -2.49478e-17
4 -2.15866 -2.03953 -2.46697e-17
4 -2.15432 -2.06415 -2.43916e-17
4 -2.14998 -2.08877 -2.41135e-17
4 -2.14564 -2.1134 -2.38355e-17
4 -2.1413 -2.13802 -2.35574e-17
4 -2.13696 -2.16264 -2.32793e-17
4 -0.818348 -2.14368 0
4 -0.793615 -2.14733 0
4 -0.768883 -2.15097 0
4 -0.74415 -2.15462 0
4 -0.719418 -2.15827 0
4 -0.694685 -2.16191 0
4 -0.669953 -2.16556 0
4 -0.64522 -2.16921 0
4 -0.620488 -2.17285 0
4 -0.595755 -2.1765 0
4 -0.571022 -2.18015 0
4 -0.542643 -2.15906 0
4 -0.538996 -2.13433 0
4 -0.535349 -2.1096 0
4 -0.531702 -2.08487 0
4 -0.528055 -2.06013 0
4 -0.524408 -2.0354 0
4 -0.520761 -2.01067 0
4 -0.517114 -1.98594 0
4 -0.513467 -1.9612 0
4 -0.509819 -1.93647 0
4 -0.506172 -1.91174 0
4 -0.527258 -1.88336 0
4 -0.551991 -1.87971 0
4 -0.576723 -1.87606 0
4 -0.601456 -1.87242 0
4 -0.626188 -1.86877 0
4 -0.650921 -1.86512 0
4 -0.675653 -1.86148 0
4 -0.700386 -1.85783 0
4 -0.725118 -1.85418 0
4 -0.749851 -1.85053 0
4 -0.774583 -1.84689 0
4 -0.802963 -1.86797 0
4 -0.80661 -1.89271 0
4 -0.810257 -1.91744 0
4 -0.813904 -1.94217 0
4 -0.817551 -1.9669 0
4 -0.821198 -1.99164 0
4 -0.824845 -2.01637 0
4 -0.828492 -2.0411 0
4 -0.832139 -2.06583 0
4 -0.835786 -2.09057 0
4 -0.839433 -2.1153 0
4 0.569659 -2.18134 -2.72754e-18
4 0.594397 -2.17772 -4.87243e-18
4 0.619134 -2.17411 -7.01732e-18
4 0.643872 -2.1705 -9.1622e-18
4 0.66861 -2.16689 -1.13071e-17
4 0.693348 -2.16328 -1.3452e-17
4 0.718085 -2.15967 -1.55969e-17
4 0.742823 -2.15605 -1.77418e-17
4 0.767561 -2.15244 -1.98866e-17
4 0.792298 -2.14883 -2.20315e-17
4 0.817036 -2.14522 -2.41764e-17
4 0.838162 -2.11687 -2.40787e-17
4 0.83455 -2.09213 -2.18362e-17
4 0.830938 -2.06739 -1.95936e-17
4 0.827326 -2.04266 -1.7351e-17
4 0.823715 -2.01792 -1.51085e-17
4 0.820103 -1.99318 -1.28659e-17
4 0.816491 -1.96844 -1.06233e-17
4 0.812879 -1.9437 -8.38078e-18
4 0.809267 -1.91897 -6.13822e-18
4 0.805655 -1.89423 -3.89565e-18
4 0.802043 -1.86949 -1.65308e-18
4 0.773694 -1.84837 2.73437e-18
4 0.748956 -1.85198 4.87926e-18
4 0.724218 -1.85559 7.02415e-18
4 0.699481 -1.8592 9.16904e-18
4 0.674743 -1.86281 1.13139e-17
4 0.650005 -1.86642 1.34588e-17
4 0.625268 -1.87004 1.56037e-17
4 0.60053 -1.87365 1.77486e-17
4 0.575792 -1.87726 1.98935e-17
4 0.551054 -1.88087 2.20384e-17
4 0.526317 -1.88448 2.41833e-17
4 0.505191 -1.91283 2.40856e-17
4 0.508803 -1.93757 2.1843e-17
4 0.512415 -1.96231 1.96004e-17
4 0.516026 -1.98705 1.73579e-17
4 0.519638 -2.01178 1.51153e-17
4 0.52325 -2.03652 1.28727e-17
4 0.526862 -2.06126 1.06302e-17
4 0.530474 -2.086 8.38761e-18
4 0.534086 -2.11074 6.14505e-18
4 0.537698 -2.13547 3.90248e-18
4 0.541309 -2.16021 1.65992e-18
4 1.86081 -2.13888 0
4 1.88543 -2.14321 0
4 1.91005 -2.14753 0
4 1.93468 -2.15186 0
4 1.9593 -2.15619 0
4 1.98392 -2.16052 0
4 2.00854 -2.16485 0
4 2.03317 -2.16918 0
4 2.05779 -2.1735 0
4 2.08241 -2.17783 0
4 2.10703 -2.18216 0
4 2.13598 -2.16187 0
4 2.14031 -2.13724 0
4 2.14464 -2.11262 0
4 2.14897 -2.088 0
4 2.1533 -2.06338 0
4 2.15763 -2.03875 0
4 2.16195 -2.01413 0
4 2.16628 -1.98951 0
4 2.17061 -1.96489 0
4 2.17494 -1.94026 0
4 2.17927 -1.91564 0
4 2.15897 -1.88669 0
4 2.13435 -1.88236 0
4 2.10973 -1.87803 0
4 2.08511 -1.87371 0
4 2.06048 -1.86938 0
4 2.03586 -1.86505 0
4 2.01124 -1.86072 0
4 1.98662 -1.85639 0
4 1.96199 -1.85206 0
4 1.93737 -1.84774 0
4 1.91275 -1.84341 0
4 1.8838 -1.8637 0
4 1.87947 -1.88832 0
4 1.87514 -1.91295 0
4 1.87081 -1.93757 0
4 1.86648 -1.96219 0
4 1.86216 -1.98681 0
4 1.85783 -2.01144 0
4 1.8535 -2.03606 0
4 1.84917 -2.06068 0
4 1.84484 -2.0853 0
4 1.84051 -2.10993 0
4 -2.16086 -0.800581 7.14135e-31
4 -2.13611 -0.804128 5.3926e-31
4 -2.11137 -0.807674 3.63616e-31
4 -2.08662 -0.81122 1.87586e-31
4 -2.06187 -0.814767 2.15704e-32
4 -2.03712 -0.818313 -1.5446e-31
4 -2.01238 -0.82186 -3.2683e-31
4 -1.98763 -0.825406 -5.0209e-31
4 -1.96288 -0.828952 -6.73209e-31
4 -1.93814 -0.832499 -8.44737e-31
4 -1.91339 -0.836045 -1.02012e-30
4 -1.8851 -0.814844 -1.17077e-30
4 -1.88155 -0.790097 -1.15017e-30
4 -1.878 -0.76535 -1.12994e-30
4 -1.87446 -0.740603 -1.10857e-30
4 -1.87091 -0.715855 -1.08854e-30
4 -1.86736 -0.691108 -1.06774e-30
4 -1.86382 -0.666361 -1.04694e-30
4 -1.86027 -0.641614 -1.02267e-30
4 -1.85672 -0.616867 -1.00187e-30
4 -1.85318 -0.59212 -9.82224e-31
4 -1.84963 -0.567372 -9.60654e-31
4 -1.87083 -0.539079 -7.68061e-31
4 -1.89558 -0.535532 -5.92416e-31
4 -1.92033 -0.531986 -4.21393e-31
4 -1.94507 -0.52844 -2.50371e-31
4 -1.96982 -0.524893 -7.47261e-32
4 -1.99457 -0.521347 9.66817e-32
4 -2.01932 -0.517801 2.68089e-31
4 -2.04406 -0.514254 4.43927e-31
4 -2.06881 -0.510708 6.19379e-31
4 -2.09356 -0.507161 7.86718e-31
4 -2.1183 -0.503615 9.62339e-31
4 -2.1466 -0.524816 1.11203e-30
4 -2.15014 -0.549563 1.09566e-30
4 -2.15369 -0.57431 1.07139e-30
4 -2.15724 -0.599057 1.05541e-30
4 -2.16078 -0.623805 1.03114e-30
4 -2.16433 -0.648552 1.00534e-30
4 -2.16788 -0.673299 9.89158e-31
4 -2.17142 -0.698046 9.64506e-31
4 -2.17497 -0.722793 9.47943e-31
4 -2.17852 -0.74754 9.23676e-31
4 -2.18206 -0.772288 9.05957e-31
4 -0.777693 -0.83446 1.51792e-17
4 -0.752875 -0.831453 1.13151e-17
4 -0.728056 -0.828447 7.45094e-18
4 -0.703238 -0.82544 3.58681e-18
4 -0.678419 -0.822433 -2.77323e-19
4 -0.653601 -0.819426 -4.14146e-18
4 -0.628782 -0.816419 -8.00559e-18
4 -0.603963 -0.813413 -1.18697e-17
4 -0.579145 -0.810406 -1.57339e-17
4 -0.554326 -0.807399 -1.9598e-17
4 -0.529508 -0.804392 -2.34621e-17
4 -0.507696 -0.776567 -2.66364e-17
4 -0.510703 -0.751748 -2.59465e-17
4 -0.51371 -0.72693 -2.52567e-17
4 -0.516717 -0.702111 -2.45668e-17
4 -0.519723 -0.677293 -2.38769e-17
4 -0.52273 -0.652474 -2.31871e-17
4 -0.525737 -0.627656 -2.24972e-17
4 -0.528744 -0.602837 -2.18073e-17
4 -0.531751 -0.578019 -2.11175e-17
4 -0.534757 -0.5532 -2.04276e-17
4 -0.537764 -0.528382 -1.97378e-17
4 -0.565589 -0.50657 -1.51838e-17
4 -0.590408 -0.509577 -1.13196e-17
4 -0.615226 -0.512584 -7.45549e-18
4 -0.640045 -0.51559 -3.59136e-18
4 -0.664864 -0.518597 2.72778e-19
4 -0.689682 -0.521604 4.13691e-18
4 -0.714501 -0.524611 8.00104e-18
4 -0.739319 -0.527617 1.18652e-17
4 -0.764138 -0.530624 1.57293e-17
4 -0.788956 -0.533631 1.95934e-17
4 -0.813775 -0.536638 2.34576e-17
4 -0.835586 -0.564463 2.66318e-17
4 -0.83258 -0.589282 2.5942e-17
4 -0.829573 -0.6141 2.52521e-17
4 -0.826566 -0.638919 2.45623e-17
4 -0.823559 -0.663737 2.38724e-17
4 -0.820552 -0.688556 2.31825e-17
4 -0.817546 -0.713374 2.24927e-17
4 -0.814539 -0.738193 2.18028e-17
4 -0.811532 -0.763011 2.11129e-17
4 -0.808525 -0.78783 2.04231e-17
4 -0.805518 -0.812648 1.97332e-17
4 0.530957 -0.805565 0
4 0.555776 -0.808561 0
4 0.580596 -0.811557 0
4 0.605416 -0.814553 0
4 0.630236 -0.817549 0
4 0.655056 -0.820544 0
4 0.679876 -0.82354 0
4 0.704695 -0.826536 0
4 0.729515 -0.829532 0
4 0.754335 -0.832528 0
4 0.779155 -0.835524 0
4 0.806971 -0.8137 0
4 0.809967 -0.78888 0
4 0.812962 -0.76406 0
4 0.815958 -0.73924 0
4 0.818954 -0.714421 0
4 0.82195 -0.689601 0
4 0.824946 -0.664781 0
4 0.827942 -0.639961 0
4 0.830938 -0.615141 0
4 0.833934 -0.590321 0
4 0.83693 -0.565502 0
4 0.815106 -0.537686 0
4 0.790286 -0.53469 0
4 0.765466 -0.531694 0
4 0.740646 -0.528698 0
4 0.715826 -0.525702 0
4 0.691007 -0.522706 0
4 0.666187 -0.51971 0
4 0.641367 -0.516714 0
4 0.616547 -0.513719 0
4 0.591727 -0.510723 0
4 0.566907 -0.507727 0
4 0.539092 -0.529551 0
4 0.536096 -0.554371 0
4 0.5331 -0.57919 0
4 0.530104 -0.60401 0
4 0.527108 -0.62883 0
4 0.524112 -0.65365 0
4 0.521116 -0.67847 0
4 0.51812 -0.70329 0
4 0.515124 -0.728109 0
4 0.512128 -0.752929 0
4 0.509133 -0.777749 0
4 1.91472 -0.835201 8.53766e-18
4 1.93947 -0.831696 7.43131e-18
4 1.96422 -0.828192 6.32496e-18
4 1.98898 -0.824688 5.21862e-18
4 2.01373 -0.821184 4.11227e-18
4 2.03848 -0.817679 3.00593e-18
4 2.06324 -0.814175 1.89958e-18
4 2.08799 -0.810671 7.93234e-19
4 2.11274 -0.807166 -3.13111e-19
4 2.1375 -0.803662 -1.41946e-18
4 2.16225 -0.800158 -2.5258e-18
4 2.1835 -0.7719 -4.13269e-18
4 2.17999 -0.747147 -4.63323e-18
4 2.17649 -0.722394 -5.13376e-18
4 2.17299 -0.697641 -5.6343e-18
4 2.16948 -0.672888 -6.13484e-18
4 2.16598 -0.648134 -6.63538e-18
4 2.16247 -0.623381 -7.13592e-18
4 2.15897 -0.598628 -7.63646e-18
4 2.15546 -0.573875 -8.137e-18
4 2.15196 -0.549122 -8.63753e-18
4 2.14846 -0.524368 -9.13807e-18
4 2.1202 -0.50312 -8.53227e-18
4 2.09545 -0.506624 -7.42592e-18
4 2.07069 -0.510128 -6.31957e-18
4 2.04594 -0.513632 -5.21323e-18
4 2.02119 -0.517137 -4.10688e-18
4 1.99643 -0.520641 -3.00054e-18
4 1.97168 -0.524145 -1.89419e-18
4 1.94693 -0.52765 -7.87845e-19
4 1.92217 -0.531154 3.18501e-19
4 1.89742 -0.534658 1.42485e-18
4 1.87267 -0.538163 2.53119e-18
4 1.85142 -0.56642 4.13808e-18
4 1.85492 -0.591173 4.63862e-18
4 1.85843 -0.615926 5.13915e-18
4 1.86193 -0.64068 5.63969e-18
4 1.86544 -0.665433 6.14023e-18
4 1.86894 -0.690186 6.64077e-18
4 1.87244 -0.714939 7.14131e-18
4 1.87595 -0.739692 7.64185e-18
4 1.87945 -0.764445 8.14239e-18
4 1.88296 -0.789199 8.64292e-18
4 1.88646 -0.813952 9.14346e-18
4 -2.11934 0.504828 4.28662e-17
4 -2.09459 0.508403 3.8111e-17
4 -2.06985 0.511978 3.33558e-17
4 -2.04511 0.515552 2.86007e-17
4 -2.02036 0.519127 2.38455e-17
4 -1.99562 0.522702 1.90903e-17
4 -1.97088 0.526276 1.43351e-17
4 -1.94614 0.529851 9.57988e-18
4 -1.92139 0.533426 4.82469e-18
4 -1.89665 0.537 6.94926e-20
4 -1.87191 0.540575 -4.6857e-18
4 -1.85074 0.568893 -1.26235e-17
4 -1.85431 0.593636 -1.58061e-17
4 -1.85789 0.618379 -1.89887e-17
4 -1.86146 0.643122 -2.21713e-17
4 -1.86504 0.667865 -2.53539e-17
4 -1.86861 0.692609 -2.85365e-17
4 -1.87219 0.717352 -3.17191e-17
4 -1.87576 0.742095 -3.49017e-17
4 -1.87934 0.766838 -3.80843e-17
4 -1.88291 0.791581 -4.12669e-17
4 -1.88648 0.816324 -4.44495e-17
4 -1.9148 0.837493 -4.28769e-17
4 -1.93955 0.833918 -3.81217e-17
4 -1.96429 0.830343 -3.33665e-17
4 -1.98903 0.826768 -2.86113e-17
4 -2.01377 0.823194 -2.38561e-17
4 -2.03852 0.819619 -1.91009e-17
4 -2.06326 0.816044 -1.43457e-17
4 -2.088 0.81247 -9.59055e-18
4 -2.11275 0.808895 -4.83536e-18
4 -2.13749 0.80532 -8.01659e-20
4 -2.16223 0.801746 4.67503e-18
4 -2.1834 0.773428 1.26128e-17
4 -2.17983 0.748685 1.57954e-17
4 -2.17625 0.723942 1.8978e-17
4 -2.17268 0.699198 2.21606e-17
4 -2.1691 0.674455 2.53432e-17
4 -2.16553 0.649712 2.85258e-17
4 -2.16195 0.624969 3.17084e-17
4 -2.15838 0.600226 3.4891e-17
4 -2.1548 0.575483 3.80736e-17
4 -2.15123 0.55074 4.12562e-17
4 -2.14766 0.525997 4.44388e-17
4 -0.814938 0.540293 -3.47622e-18
4 -0.79012 0.537282 -7.05763e-18
4 -0.765302 0.53427 -1.0639e-17
4 -0.740484 0.531259 -1.42205e-17
4 -0.715666 0.528247 -1.78019e-17
4 -0.690848 0.525236 -2.13833e-17
4 -0.66603 0.522224 -2.49647e-17
4 -0.641212 0.519212 -2.85461e-17
4 -0.616394 0.516201 -3.21275e-17
4 -0.591576 0.513189 -3.57089e-17
4 -0.566758 0.510178 -3.92903e-17
4 -0.538929 0.531984 -3.93091e-17
4 -0.535917 0.556802 -3.57466e-17
4 -0.532906 0.58162 -3.2184e-17
4 -0.529894 0.606438 -2.86214e-17
4 -0.526883 0.631256 -2.50588e-17
4 -0.523871 0.656074 -2.14962e-17
4 -0.52086 0.680892 -1.79336e-17
4 -0.517848 0.70571 -1.4371e-17
4 -0.514836 0.730528 -1.08084e-17
4 -0.511825 0.755346 -7.24582e-18
4 -0.508813 0.780164 -3.68323e-18
4 -0.53062 0.807993 3.46078e-18
4 -0.555438 0.811005 7.04219e-18
4 -0.580256 0.814016 1.06236e-17
4 -0.605073 0.817028 1.4205e-17
4 -0.629891 0.820039 1.77864e-17
4 -0.654709 0.823051 2.13678e-17
4 -0.679527 0.826063 2.49492e-17
4 -0.704345 0.829074 2.85307e-17
4 -0.729163 0.832086 3.21121e-17
4 -0.753981 0.835097 3.56935e-17
4 -0.778799 0.838109 3.92749e-17
4 -0.806629 0.816302 3.92937e-17
4 -0.80964 0.791484 3.57311e-17
4 -0.812652 0.766667 3.21685e-17
4 -0.815663 0.741849 2.86059e-17
4 -0.818675 0.717031 2.50433e-17
4 -0.821686 0.692213 2.14807e-17
4 -0.824698 0.667395 1.79182e-17
4 -0.82771 0.642577 1.43556e-17
4 -0.830721 0.617759 1.0793e-17
4 -0.833733 0.592941 7.23038e-18
4 -0.836744 0.568123 3.66779e-18
4 0.565929 0.509243 3.14766e-17
4 0.590748 0.512249 2.75623e-17
4 0.615566 0.515256 2.36481e-17
4 0.640385 0.518262 1.97339e-17
4 0.665204 0.521268 1.58197e-17
4 0.690022 0.524274 1.19055e-17
4 0.714841 0.52728 7.99128e-18
4 0.739659 0.530286 4.07706e-18
4 0.764478 0.533293 1.62847e-19
4 0.789297 0.536299 -3.75137e-18
4 0.814115 0.539305 -7.66558e-18
4 0.835928 0.56713 -1.35643e-17
4 0.832921 0.591948 -1.55488e-17
4 0.829915 0.616767 -1.75333e-17
4 0.826909 0.641585 -1.95178e-17
4 0.823903 0.666404 -2.15023e-17
4 0.820897 0.691223 -2.34868e-17
4 0.817891 0.716041 -2.54713e-17
4 0.814884 0.74086 -2.74558e-17
4 0.811878 0.765678 -2.94403e-17
4 0.808872 0.790497 -3.14248e-17
4 0.805866 0.815316 -3.34093e-17
4 0.778041 0.837128 -3.14795e-17
4 0.753223 0.834122 -2.75653e-17
4 0.728404 0.831116 -2.36511e-17
4 0.703585 0.82811 -1.97369e-17
4 0.678767 0.825103 -1.58227e-17
4 0.653948 0.822097 -1.19085e-17
4 0.62913 0.819091 -7.99425e-18
4 0.604311 0.816085 -4.08003e-18
4 0.579492 0.813079 -1.65818e-19
4 0.554674 0.810073 3.7484e-18
4 0.529855 0.807066 7.66261e-18
4 0.508043 0.779242 1.35613e-17
4 0.511049 0.754423 1.55458e-17
4 0.514055 0.729604 1.75303e-17
4 0.517061 0.704786 1.95148e-17
4 0.520067 0.679967 2.14993e-17
4 0.523074 0.655149 2.34838e-17
4 0.52608 0.63033 2.54683e-17
4 0.529086 0.605511 2.74528e-17
4 0.532092 0.580693 2.94373e-17
4 0.535098 0.555874 3.14218e-17
4 0.538104 0.531056 3.34063e-17
4 1.87157 0.541004 6.7003e-18
4 1.89632 0.537512 6.05226e-18
4 1.92108 0.534019 5.40421e-18
4 1.94583 0.530526 4.75617e-18
4 1.97059 0.527033 4.10812e-18
4 1.99534 0.523541 3.46008e-18
4 2.0201 0.520048 2.81203e-18
4 2.04485 0.516555 2.16398e-18
4 2.06961 0.513063 1.51594e-18
4 2.09436 0.50957 8.67894e-19
4 2.11912 0.506077 2.19849e-19
4 2.14736 0.527339 -1.0047e-18
4 2.15086 0.552094 -1.5812e-18
4 2.15435 0.576849 -2.1577e-18
4 2.15784 0.601604 -2.7342e-18
4 2.16133 0.626359 -3.3107e-18
4 2.16483 0.651113 -3.8872e-18
4 2.16832 0.675868 -4.4637e-18
4 2.17181 0.700623 -5.04021e-18
4 2.17531 0.725378 -5.61671e-18
4 2.1788 0.750133 -6.19321e-18
4 2.18229 0.774887 -6.76971e-18
4 2.16103 0.803135 -6.69816e-18
4 2.13627 0.806628 -6.05012e-18
4 2.11152 0.81012 -5.40207e-18
4 2.08676 0.813613 -4.75403e-18
4 2.06201 0.817106 -4.10598e-18
4 2.03725 0.820599 -3.45794e-18
4 2.0125 0.824091 -2.80989e-18
4 1.98775 0.827584 -2.16185e-18
4 1.96299 0.831077 -1.5138e-18
4 1.93824 0.834569 -8.65756e-19
4 1.91348 0.838062 -2.17711e-19
4 1.88523 0.8168 1.00684e-18
4 1.88174 0.792045 1.58334e-18
4 1.87825 0.76729 2.15984e-18
4 1.87476 0.742535 2.73634e-18
4 1.87126 0.717781 3.31284e-18
4 1.86777 0.693026 3.88934e-18
4 1.86428 0.668271 4.46584e-18
4 1.86078 0.643516 5.04234e-18
4 1.85729 0.618761 5.61884e-18
4 1.8538 0.594007 6.19535e-18
4 1.85031 0.569252 6.77185e-18
4 -2.15909 1.88869 6.64909e-18
4 -2.13447 1.88433 5.97723e-18
4 -2.10986 1.87996 5.30537e-18
4 -2.08524 1.8756 4.63351e-18
4 -2.06063 1.87123 3.96164e-18
4 -2.03601 1.86687 3.28978e-18
4 -2.01139 1.8625 2.61792e-18
4 -1.98678 1.85814 1.94605e-18
4 -1.96216 1.85377 1.27419e-18
4 -1.93755 1.84941 6.02329e-19
4 -1.91293 1.84504 -6.9534e-20
4 -1.88395 1.8653 -1.28996e-18
4 -1.87958 1.88991 -1.83851e-18
4 -1.87522 1.91453 -2.38707e-18
4 -1.87085 1.93914 -2.93563e-18
4 -1.86649 1.96376 -3.48419e-18
4 -1.86213 1.98838 -4.03275e-18
4 -1.85776 2.01299 -4.58131e-18
4 -1.8534 2.03761 -5.12987e-18
4 -1.84903 2.06222 -5.67843e-18
4 -1.84467 2.08684 -6.22698e-18
4 -1.8403 2.11146 -6.77554e-18
4 -1.86055 2.14044 -6.65224e-18
4 -1.88517 2.1448 -5.98038e-18
4 -1.90979 2.14917 -5.30851e-18
4 -1.9344 2.15353 -4.63665e-18
4 -1.95902 2.15789 -3.96479e-18
4 -1.98363 2.16226 -3.29293e-18
4 -2.00825 2.16662 -2.62106e-18
4 -2.03287 2.17099 -1.9492e-18
4 -2.05748 2.17535 -1.27734e-18
4 -2.0821 2.17972 -6.05474e-19
4 -2.10671 2.18408 6.6389e-20
4 -2.1357 2.16383 1.28681e-18
4 -2.14006 2.13921 1.83537e-18
4 -2.14442 2.1146 2.38393e-18
4 -2.14879 2.08998 2.93249e-18
4 -2.15315 2.06537 3.48105e-18
4 -2.15752 2.04075 4.0296e-18
4 -2.16188 2.01613 4.57816e-18
4 -2.16625 1.99152 5.12672e-18
4 -2.17061 1.9669 5.67528e-18
4 -2.17498 1.94229 6.22384e-18
4 -2.17934 1.91767 6.7724e-18
4 -0.77338 1.85043 7.91674e-20
4 -0.748653 1.85412 2.05752e-19
4 -0.723927 1.85781 3.32337e-19
4 -0.699201 1.8615 4.58922e-19
4 -0.674475 1.86519 5.85507e-19
4 -0.649748 1.86888 7.12092e-19
4 -0.625022 1.87257 8.38677e-19
4 -0.600296 1.87626 9.65261e-19
4 -0.57557 1.87995 1.09185e-18
4 -0.550843 1.88364 1.21843e-18
4 -0.526117 1.88733 1.34502e-18
4 -0.50508 1.91574 1.35299e-18
4 -0.50877 1.94047 1.23438e-18
4 -0.512459 1.9652 1.11576e-18
4 -0.516149 1.98992 9.97151e-19
4 -0.519839 2.01465 8.78538e-19
4 -0.523528 2.03937 7.59926e-19
4 -0.527218 2.0641 6.41313e-19
4 -0.530907 2.08883 5.22701e-19
4 -0.534597 2.11355 4.04088e-19
4 -0.538286 2.13828 2.85476e-19
4 -0.541976 2.16301 1.66863e-19
4 -0.570391 2.18404 -7.83343e-20
4 -0.595118 2.18035 -2.04919e-19
4 -0.619844 2.17666 -3.31504e-19
4 -0.64457 2.17297 -4.58089e-19
4 -0.669296 2.16928 -5.84674e-19
4 -0.694023 2.1656 -7.11259e-19
4 -0.718749 2.16191 -8.37843e-19
4 -0.743475 2.15822 -9.64428e-19
4 -0.768201 2.15453 -1.09101e-18
4 -0.792928 2.15084 -1.2176e-18
4 -0.817654 2.14715 -1.34418e-18
4 -0.838691 2.11873 -1.35216e-18
4 -0.835001 2.09401 -1.23354e-18
4 -0.831312 2.06928 -1.11493e-18
4 -0.827622 2.04455 -9.96318e-19
4 -0.823933 2.01983 -8.77705e-19
4 -0.820243 1.9951 -7.59093e-19
4 -0.816554 1.97037 -6.4048e-19
4 -0.812864 1.94565 -5.21868e-19
4 -0.809174 1.92092 -4.03255e-19
4 -0.805485 1.8962 -2.84642e-19
4 -0.801795 1.87147 -1.6603e-19
4 0.52649 1.88631 -1.13094e-18
4 0.551215 1.88261 2.33166e-18
4 0.57594 1.87891 5.79426e-18
4 0.600664 1.87521 9.25687e-18
4 0.625389 1.87151 1.27195e-17
4 0.650114 1.86781 1.61821e-17
4 0.674839 1.86411 1.96447e-17
4 0.699564 1.86042 2.31073e-17
4 0.724289 1.85672 2.65699e-17
4 0.749014 1.85302 3.00325e-17
4 0.773739 1.84932 3.34951e-17
4 0.802162 1.87035 3.42614e-17
4 0.805861 1.89507 3.15652e-17
4 0.809559 1.9198 2.8869e-17
4 0.813258 1.94452 2.61727e-17
4 0.816957 1.96925 2.34765e-17
4 0.820655 1.99397 2.07803e-17
4 0.824354 2.0187 1.8084e-17
4 0.828052 2.04342 1.53878e-17
4 0.831751 2.06815 1.26916e-17
4 0.83545 2.09287 9.99532e-18
4 0.839148 2.1176 7.29908e-18
4 0.818122 2.14602 1.14024e-18
4 0.793397 2.14972 -2.32236e-18
4 0.768672 2.15342 -5.78496e-18
4 0.743947 2.15711 -9.24756e-18
4 0.719222 2.16081 -1.27102e-17
4 0.694497 2.16451 -1.61728e-17
4 0.669773 2.16821 -1.96354e-17
4 0.645048 2.17191 -2.3098e-17
4 0.620323 2.17561 -2.65606e-17
4 0.595598 2.17931 -3.00232e-17
4 0.570873 2.183 -3.34858e-17
4 0.54245 2.16198 -3.42521e-17
4 0.538751 2.13725 -3.15559e-17
4 0.535052 2.11253 -2.88597e-17
4 0.531354 2.0878 -2.61634e-17
4 0.527655 2.06308 -2.34672e-17
4 0.523957 2.03835 -2.0771e-17
4 0.520258 2.01363 -1.80747e-17
4 0.516559 1.9889 -1.53785e-17
4 0.512861 1.96418 -1.26822e-17
4 0.509162 1.93945 -9.98601e-18
4 0.505464 1.91473 -7.28978e-18
4 1.9133 1.84631 1.48367e-18
4 1.93792 1.85067 4.37452e-18
4 1.96254 1.85502 7.26536e-18
4 1.98715 1.85937 1.01562e-17
4 2.01177 1.86372 1.30471e-17
4 2.03639 1.86808 1.59379e-17
4 2.06101 1.87243 1.88287e-17
4 2.08563 1.87678 2.17196e-17
4 2.11025 1.88113 2.46104e-17
4 2.13486 1.88549 2.75013e-17
4 2.15948 1.88984 3.03921e-17
4 2.17975 1.91881 3.06277e-17
4 2.17539 1.94343 2.79724e-17
4 2.17104 1.96804 2.53172e-17
4 2.16669 1.99266 2.26619e-17
4 2.16234 2.01728 2.00066e-17
4 2.15798 2.0419 1.73513e-17
4 2.15363 2.06652 1.46961e-17
4 2.14928 2.09114 1.20408e-17
4 2.14493 2.11575 9.38553e-18
4 2.14057 2.14037 6.73026e-18
4 2.13622 2.16499 4.075e-18
4 2.10725 2.18526 -1.47112e-18
4 2.08263 2.1809 -4.36196e-18
4 2.05802 2.17655 -7.25281e-18
4 2.0334 2.1722 -1.01437e-17
4 2.00878 2.16785 -1.30345e-17
4 1.98416 2.16349 -1.59253e-17
4 1.95954 2.15914 -1.88162e-17
4 1.93492 2.15479 -2.1707e-17
4 1.91031 2.15044 -2.45979e-17
4 1.88569 2.14608 -2.74887e-17
4 1.86107 2.14173 -3.03796e-17
4 1.8408 2.11276 -3.06151e-17
4 1.84516 2.08814 -2.79599e-17
4 1.84951 2.06352 -2.53046e-17
4 1.85386 2.03891 -2.26493e-17
4 1.85821 2.01429 -1.99941e-17
4 1.86257 1.98967 -1.73388e-17
4 1.86692 1.96505 -1.46835e-17
4 1.87127 1.94043 -1.20283e-17
4 1.87562 1.91582 -9.37298e-18
4 1.87998 1.8912 -6.71771e-18
4 1.88433 1.86658 -4.06244e-18
1 -2.26718 -1.85554 0
1 -2.26286 -1.88016 0
1 -2.25854 -1.90478 0
1 -2.25421 -1.92941 0
1 -2.24988 -1.95404 0
1 -2.24555 -1.97867 0
1 -2.24121 -2.0033 0
1 -2.23687 -2.02792 0
1 -2.23253 -2.05255 0
1 -2.22818 -2.07717 0
1 -2.22384 -2.10179 0
1 -2.2195 -2.12641 0
1 -2.21516 -2.15103 0
1 -2.21082 -2.17565 0
1 -2.20648 -2.20027 0
1 -2.20214 -2.2249 0
1 -2.1978 -2.24952 0
1 -2.14853 -1.80895 0
1 -2.17311 -1.81349 0
1 -2.19769 -1.8179 0
1 -2.22229 -1.82226 0
1 -2.2469 -1.82659 0
1 -2.16884 -2.2698 0
1 -2.14422 -2.26546 0
1 -2.1196 -2.26112 0
1 -2.09498 -2.25678 0
1 -2.07036 -2.25244 0
1 -2.04574 -2.2481 0
1 -2.02112 -2.24375 0
1 -1.9965 -2.23941 0
1 -1.97188 -2.23507 0
1 -1.94727 -2.23073 0
1 -1.92265 -2.22639 0
1 -1.89804 -2.22205 0
1 -1.87343 -2.21772 0
1 -1.84882 -2.2134 0
1 -1.82421 -2.20909 0
1 -1.79959 -2.20478 0
1 -1.77496 -2.20046 0
1 -2.12543 -0.907631 0
1 -2.12864 -0.932927 0
1 -2.13176 -0.958293 0
1 -2.13472 -0.983687 0
1 -2.13751 -1.00911 0
1 -2.14013 -1.03455 0
1 -2.14257 -1.06002 0
1 -2.14484 -1.08551 0
1 -2.14692 -1.11103 0
1 -2.14883 -1.13656 0
1 -2.15055 -1.16213 0
1 -2.15207 -1.18771 0
1 -2.15341 -1.21331 0
1 -2.15455 -1.23893 0
1 -2.15549 -1.26457 0
1 -2.15623 -1.29023 0
1 -2.15677 -1.31589 0
1 -2.1571 -1.34158 0
1 -2.15722 -1.36727 0
1 -2.15712 -1.39297 0
1 -2.1568 -1.41868 0
1 -2.15627 -1.4444 0
1 -2.15551 -1.47013 0
1 -2.15452 -1.49585 0
1 -2.1533 -1.52158 0
1 -2.15185 -1.5473 0
1 -2.15016 -1.57302 0
1 -2.14823 -1.59873 0
1 -2.14605 -1.62444 0
1 -2.14362 -1.65013 0
1 -2.14095 -1.67582 0
1 -2.13802 -1.70148 0
1 -2.13482 -1.72714 0
1 -2.13136 -1.75277 0
1 -2.12764 -1.7784 0
1 -1.75466 -2.1715 0
1 -1.759 -2.14688 0
1 -1.76335 -2.12224 0
1 -1.76776 -2.09762 0
1 -1.77229 -2.07302 0
1 -2.24569 -0.864214 0
1 -2.22095 -0.867755 0
1 -2.19621 -0.871308 0
1 -2.17148 -0.874893 0
1 -2.14676 -0.878542 0
1 -1.75332 -2.04479 0
1 -1.72943 -2.04136 0
1 -1.70559 -2.03807 0
1 -1.6817 -2.03505 0
1 -1.65776 -2.03229 0
1 -1.63378 -2.02978 0
1 -1.60975 -2.02753 0
1 -1.58569 -2.02552 0
1 -1.5616 -2.02376 0
1 -1.53748 -2.02224 0
1 -1.51332 -2.02096 0
1 -1.48915 -2.01991 0
1 -1.46495 -2.0191 0
1 -1.44073 -2.01851 0
1 -1.41649 -2.01814 0
1 -1.39224 -2.018 0
1 -1.36797 -2.01807 0
1 -1.34369 -2.01836 0
1 -1.3194 -2.01885 0
1 -1.2951 -2.01955 0
1 -1.27079 -2.02045 0
1 -1.24647 -2.02154 0
1 -1.22215 -2.02282 0
1 -1.19782 -2.0243 0
1 -1.17349 -2.02595 0
1 -1.14916 -2.02779 0
1 -1.12483 -2.0298 0
1 -1.1005 -2.03198 0
1 -1.07616 -2.03433 0
1 -1.05183 -2.03684 0
1 -1.0275 -2.0395 0
1 -1.00318 -2.04232 0
1 -0.978857 -2.04529 0
1 -0.954544 -2.04841 0
1 -0.930234 -2.05167 0
1 -2.21023 -0.439945 0
1 -2.21378 -0.464696 0
1 -2.21731 -0.489445 0
1 -2.22085 -0.514193 0
1 -2.22439 -0.538938 0
1 -2.22794 -0.563683 0
1 -2.23148 -0.588428 0
1 -2.23503 -0.613174 0
1 -2.23857 -0.63792 0
1 -2.24212 -0.662668 0
1 -2.24566 -0.687416 0
1 -2.24921 -0.712166 0
1 -2.25276 -0.736918 0
1 -2.25629 -0.761672 0
1 -2.25983 -0.786427 0
1 -2.26336 -0.811181 0
1 -2.2669 -0.835929 0
1 -0.909826 -2.0796 0
1 -0.913574 -2.10433 0
1 -0.917263 -2.12908 0
1 -0.920922 -2.15382 0
1 -0.924572 -2.17856 0
1 -2.08292 -0.433135 0
1 -2.10766 -0.429452 0
1 -2.13242 -0.425848 0
1 -2.15718 -0.422287 0
1 -2.18194 -0.41874 0
1 -0.903487 -2.20694 0
1 -0.878752 -2.21059 0