14926
 Atoms. Timestep: 2000000
4 -2.0651 -2.17376 -2.96911e-17
4 -1.78215 -2.07408 6.13891e-17
4 -1.88183 -1.79113 2.96685e-17
4 -2.16479 -1.89081 -6.14116e-17
4 -0.850026 -2.08806 0
4 -0.562302 -2.173 0
4 -0.477361 -1.88528 0
4 -0.765085 -1.80034 0
4 0.559643 -2.17535 -1.07866e-17
4 0.847602 -2.09121 -7.08622e-17
4 0.763464 -1.80325 1.08054e-17
4 0.475504 -1.88739 7.08811e-17
4 1.7804 -2.07285 -1.41018e-17
4 2.0634 -2.17241 5.07287e-17
4 2.16296 -1.88941 1.40725e-17
4 1.87996 -1.78985 -5.0758e-17
4 -2.17612 -0.764826 -5.23857e-18
4 -1.887 -0.844877 -5.16744e-18
4 -1.80695 -0.555755 5.24066e-18
4 -2.09607 -0.475703 5.16953e-18
4 -0.774292 -0.84346 9.20992e-18
4 -0.482625 -0.773242 -8.2393e-17
4 -0.552844 -0.481575 -9.22019e-18
4 -0.84451 -0.551793 8.23828e-17
4 0.485377 -0.775491 -3.66016e-17
4 0.777123 -0.845378 6.85073e-18
4 0.847011 -0.553632 3.66036e-17
4 0.555265 -0.483744 -6.84871e-18
4 1.88966 -0.843291 -6.19553e-17
4 2.17902 -0.764114 4.85e-17
4 2.09984 -0.474751 6.19159e-17
4 1.81048 -0.553928 -4.85394e-17
4 -2.0981 0.475883 7.17226e-17
4 -1.80913 0.556495 -2.00423e-17
4 -1.88975 0.845462 -7.17391e-17
4 -2.17871 0.76485 2.00257e-17
4 -0.8468 0.556395 1.6245e-17
4 -0.555136 0.486165 -2.90793e-17
4 -0.484906 0.777829 -1.62586e-17
4 -0.77657 0.848059 2.90658e-17
4 0.553305 0.484524 6.63137e-20
4 0.844982 0.554698 -1.17749e-17
4 0.774809 0.846375 -6.51523e-20
4 0.483131 0.776201 1.17761e-17
4 1.80824 0.557452 -3.91563e-19
4 2.09769 0.478606 5.9205e-18
4 2.17654 0.768059 3.91068e-19
4 1.88708 0.846905 -5.921e-18
4 -2.16256 1.89081 6.22281e-18
4 -1.87983 1.79049 -6.30187e-19
4 -1.77951 2.07322 -6.22549e-18
4 -2.06223 2.17354 6.27514e-19
4 -0.762675 1.80474 6.99931e-18
4 -0.475218 1.89058 -3.4391e-17
4 -0.561058 2.17804 -7.01837e-18
4 -0.848515 2.0922 3.4372e-17
4 0.475661 1.88879 -1.84565e-17
4 0.763066 1.80277 2.77264e-17
4 0.849081 2.09018 1.8463e-17
4 0.561677 2.17619 -2.77199e-17
4 1.88018 1.79362 -2.81434e-18
4 2.16298 1.89375 6.65659e-17
4 2.06285 2.17655 2.83945e-18
4 1.78005 2.07642 -6.65408e-17
1 -2.26031 -1.84485 0
1 -2.11093 -2.26942 0
1 -2.11925 -1.7936 0
1 -1.68653 -2.12014 0
1 -2.12395 -0.85812 0
1 -1.73787 -1.97929 0
1 -2.26831 -0.8172 0
1 -0.899967 -1.99505 0
1 -2.1484 -0.383417 0
1 -0.943198 -2.13875 0
1 -2.0041 -0.424465 0
1 -0.511461 -2.26603 0
1 -2.00617 0.424787 0
1 -0.467947 -2.12239 0
1 -2.15034 0.383528 0
1 0.46548 -2.1246 0
1 -2.27105 0.816989 0
1 0.508616 -2.2683 0
1 -2.12683 0.858234 0
1 0.940615 -2.14222 0
1 -2.11709 1.79346 0
1 0.897861 -1.99843 0
1 -2.25812 1.84497 0
1 1.73616 -1.97786 0
1 -2.10784 2.2693 0
1 1.68477 -2.11881 0
1 -1.68374 2.11892 0
1 2.10927 -2.26804 0
1 -1.73553 1.9781 0
1 2.25841 -1.84333 0
1 -0.898179 1.99913 0
1 2.11723 -1.79219 0
1 -0.941827 2.14266 0
1 2.12668 -0.857206 0
1 -0.510579 2.27128 0
1 2.2711 -0.816704 0
1 -0.466572 2.12785 0
1 2.15253 -0.382652 0
1 0.467128 2.12594 0
1 2.00816 -0.423174 0
1 0.511186 2.26941 0
1 2.00594 0.426973 0
1 0.942441 2.14052 0
1 2.1504 0.386541 0
1 0.898651 1.99699 0
1 2.26851 0.820816 0
1 1.73588 1.98153 0
1 2.12397 0.861118 0
1 1.68436 2.12233 0
1 2.11759 1.79647 0
1 2.10852 2.27228 0
1 2.25859 1.84795 0
1 -1.97895 -0.896007 0
1 -1.97682 -1.74686 0
1 -1.83461 -0.937062 0
1 -1.83577 -1.69559 0
1 -1.79315 -0.792857 0
1 -1.78417 -1.83649 0
1 -0.865987 -0.788316 0
1 -0.859031 -1.85078 0
1 -0.829678 -0.933889 0
1 -0.815889 -1.70719 0
1 -0.683956 -0.897986 0
1 -0.672676 -1.75171 0
1 -0.527824 -1.79031 0
1 -0.537744 -0.864523 0
1 -0.384346 -1.83439 0
1 -0.392149 -0.828635 0
1 -0.428075 -1.97794 0
1 -0.428468 -0.683067 0
1 0.42573 -1.98001 0
1 0.431268 -0.685467 0
1 0.382628 -1.83623 0
1 0.394968 -0.830994 0
1 0.526157 -1.79234 0
1 0.540627 -0.866585 0
1 0.671185 -1.75418 0
1 0.686845 -0.899983 0
1 0.814554 -1.71025 0
1 0.832598 -0.935746 0
1 0.857368 -1.85393 0
1 0.8686 -0.790126 0
1 1.78258 -1.83534 0
1 1.79572 -0.79099 0
1 1.83387 -1.69437 0
1 1.83698 -0.9353 0
1 1.97482 -1.74581 0
1 1.98152 -0.894871 0
1 -1.86096 0.462699 0
1 -1.85899 -0.462272 0
1 -1.71682 0.50427 0
1 -1.71475 -0.503356 0
1 -1.75851 0.648409 0
1 -1.75636 -0.647522 0
1 -0.900944 0.64652 0
1 -0.898834 -0.641952 0
1 -0.937205 0.500947 0
1 -0.934906 -0.496331 0
1 -0.791636 0.464771 0
1 -0.789343 -0.460006 0
1 -1.9748 1.7467 0
1 -1.98182 0.896539 0
1 -1.83402 1.69484 0
1 -1.83753 0.937748 0
1 -1.78232 1.83568 0
1 -1.79566 0.793667 0
1 -0.856908 1.85485 0
1 -0.868236 0.792862 0
1 -0.813151 1.71142 0
1 -0.831988 0.938454 0
1 -0.669943 1.75617 0
1 -0.686294 0.902486 0
1 -0.642913 -0.427435 0
1 -0.645279 0.432142 0
1 -0.49735 -0.391182 0
1 -0.499709 0.395743 0
1 -0.461093 -0.536717 0
1 -0.463553 0.541323 0
1 0.463657 -0.539067 0
1 0.461446 0.539706 0
1 0.499659 -0.393429 0
1 0.497804 0.394148 0
1 0.645233 -0.429699 0
1 0.643428 0.430299 0
1 0.791684 -0.461945 0
1 0.789827 0.463007 0
1 0.937321 -0.498063 0
1 0.935386 0.49924 0
1 0.901354 -0.643764 0
1 0.899359 0.644889 0
1 1.75946 -0.645455 0
1 1.75732 0.6489 0
1 1.71844 -0.501187 0
1 1.71626 0.504633 0
1 1.86278 -0.460424 0
1 1.86069 0.46417 0
1 -0.540074 0.869068 0
1 -0.525267 1.79533 0
1 -0.394444 0.833218 0
1 -0.382022 1.84 0
1 -0.430824 0.687658 0
1 -0.426048 1.98345 0
1 0.429041 0.686166 0
1 0.426736 1.98164 0
1 0.392697 0.831686 0
1 0.382459 1.83825 0
1 0.538295 0.867527 0
1 0.525753 1.79367 0
1 0.684556 0.900879 0
1 0.670356 1.75445 0
1 0.83024 0.936792 0
1 0.813477 1.70943 0
1 0.86642 0.791232 0
1 0.857243 1.85286 0
1 1.79332 0.794418 0
1 1.78247 1.83882 0
1 1.83425 0.938814 0
1 1.83429 1.69801 0
1 1.97881 0.89844 0
1 1.9752 1.74955 0
4 -2.04152 -2.16546 -2.2101e-17
4 -2.01794 -2.15715 -1.4511e-17
4 -1.99437 -2.14884 -6.92101e-18
4 -1.97079 -2.14054 6.69002e-19
4 -1.94721 -2.13223 8.25902e-18
4 -1.92363 -2.12392 1.5849e-17
4 -1.90005 -2.11561 2.3439e-17
4 -1.87647 -2.10731 3.10291e-17
4 -1.85289 -2.099 3.86191e-17
4 -1.82931 -2.09069 4.62091e-17
4 -1.80573 -2.08239 5.37991e-17
4 -1.79046 -2.0505 5.87457e-17
4 -1.79876 -2.02692 5.61023e-17
4 -1.80707 -2.00334 5.3459e-17
4 -1.81538 -1.97976 5.08156e-17
4 -1.82368 -1.95618 4.81722e-17
4 -1.83199 -1.9326 4.55288e-17
4 -1.8403 -1.90902 4.28854e-17
4 -1.84861 -1.88544 4.02421e-17
4 -1.85691 -1.86186 3.75987e-17
4 -1.86522 -1.83828 3.49553e-17
4 -1.87353 -1.8147 3.23119e-17
4 -1.90541 -1.79943 2.20785e-17
4 -1.92899 -1.80774 1.44885e-17
4 -1.95257 -1.81605 6.8985e-18
4 -1.97615 -1.82435 -6.91511e-19
4 -1.99973 -1.83266 -8.28152e-18
4 -2.02331 -1.84097 -1.58715e-17
4 -2.04689 -1.84927 -2.34616e-17
4 -2.07047 -1.85758 -3.10516e-17
4 -2.09405 -1.86589 -3.86416e-17
4 -2.11763 -1.8742 -4.62316e-17
4 -2.14121 -1.8825 -5.38216e-17
4 -2.15648 -1.91439 -5.87682e-17
4 -2.14817 -1.93797 -5.61249e-17
4 -2.13987 -1.96155 -5.34815e-17
4 -2.13156 -1.98513 -5.08381e-17
4 -2.12325 -2.00871 -4.81947e-17
4 -2.11495 -2.03229 -4.55513e-17
4 -2.10664 -2.05587 -4.2908e-17
4 -2.09833 -2.07945 -4.02646e-17
4 -2.09002 -2.10302 -3.76212e-17
4 -2.08172 -2.1266 -3.49778e-17
4 -2.07341 -2.15018 -3.23344e-17
4 -0.826049 -2.09514 0
4 -0.802072 -2.10222 0
4 -0.778095 -2.10929 0
4 -0.754118 -2.11637 0
4 -0.730141 -2.12345 0
4 -0.706164 -2.13053 0
4 -0.682187 -2.13761 0
4 -0.65821 -2.14469 0
4 -0.634233 -2.15176 0
4 -0.610256 -2.15884 0
4 -0.586279 -2.16592 0
4 -0.555223 -2.14902 0
4 -0.548145 -2.12505 0
4 -0.541066 -2.10107 0
4 -0.533988 -2.07709 0
4 -0.52691 -2.05311 0
4 -0.519831 -2.02914 0
4 -0.512753 -2.00516 0
4 -0.505675 -1.98118 0
4 -0.498596 -1.95721 0
4 -0.491518 -1.93323 0
4 -0.48444 -1.90925 0
4 -0.501338 -1.8782 0
4 -0.525315 -1.87112 0
4 -0.549292 -1.86404 0
4 -0.573269 -1.85696 0
4 -0.597246 -1.84988 0
4 -0.621223 -1.84281 0
4 -0.6452 -1.83573 0
4 -0.669177 -1.82865 0
4 -0.693154 -1.82157 0
4 -0.717131 -1.81449 0
4 -0.741108 -1.80741 0
4 -0.772164 -1.82431 0
4 -0.779242 -1.84829 0
4 -0.78632 -1.87227 0
4 -0.793399 -1.89624 0
4 -0.800477 -1.92022 0
4 -0.807555 -1.9442 0
4 -0.814634 -1.96817 0
4 -0.821712 -1.99215 0
4 -0.828791 -2.01613 0
4 -0.835869 -2.04011 0
4 -0.842947 -2.06408 0
4 0.58364 -2.16834 -1.57929e-17
4 0.607636 -2.16133 -2.07992e-17
4 0.631633 -2.15432 -2.58055e-17
4 0.655629 -2.14731 -3.08118e-17
4 0.679626 -2.14029 -3.58181e-17
4 0.703623 -2.13328 -4.08244e-17
4 0.727619 -2.12627 -4.58307e-17
4 0.751616 -2.11926 -5.0837e-17
4 0.775613 -2.11225 -5.58433e-17
4 0.799609 -2.10524 -6.08496e-17
4 0.823606 -2.09823 -6.58559e-17
4 0.840591 -2.06722 -6.40566e-17
4 0.833579 -2.04322 -5.7251e-17
4 0.826568 -2.01922 -5.04453e-17
4 0.819556 -1.99523 -4.36397e-17
4 0.812545 -1.97123 -3.6834e-17
4 0.805533 -1.94723 -3.00284e-17
4 0.798522 -1.92324 -2.32228e-17
4 0.79151 -1.89924 -1.64171e-17
4 0.784499 -1.87524 -9.61147e-18
4 0.777487 -1.85125 -2.80583e-18
4 0.770475 -1.82725 3.9998e-18
4 0.739467 -1.81027 1.58117e-17
4 0.715471 -1.81728 2.0818e-17
4 0.691474 -1.82429 2.58243e-17
4 0.667477 -1.8313 3.08306e-17
4 0.643481 -1.83831 3.58369e-17
4 0.619484 -1.84532 4.08432e-17
4 0.595488 -1.85234 4.58495e-17
4 0.571491 -1.85935 5.08558e-17
4 0.547494 -1.86636 5.58622e-17
4 0.523498 -1.87337 6.08685e-17
4 0.499501 -1.88038 6.58748e-17
4 0.482516 -1.91139 6.40754e-17
4 0.489527 -1.93539 5.72698e-17
4 0.496539 -1.95938 5.04641e-17
4 0.503551 -1.98338 4.36585e-17
4 0.510562 -2.00738 3.68529e-17
4 0.517574 -2.03137 3.00472e-17
4 0.524585 -2.05537 2.32416e-17
4 0.531597 -2.07937 1.64359e-17
4 0.538608 -2.10336 9.63029e-18
4 0.54562 -2.12736 2.82465e-18
4 0.552631 -2.15136 -3.98099e-18
4 1.80399 -2.08115 -8.69926e-18
4 1.82757 -2.08944 -3.29672e-18
4 1.85115 -2.09774 2.10583e-18
4 1.87474 -2.10604 7.50838e-18
4 1.89832 -2.11433 1.29109e-17
4 1.9219 -2.12263 1.83135e-17
4 1.94549 -2.13093 2.3716e-17
4 1.96907 -2.13922 2.91186e-17
4 1.99265 -2.14752 3.45211e-17
4 2.01624 -2.15582 3.99237e-17
4 2.03982 -2.16411 4.53262e-17
4 2.0717 -2.14883 4.76741e-17
4 2.07999 -2.12524 4.46194e-17
4 2.08829 -2.10166 4.15647e-17
4 2.09659 -2.07808 3.851e-17
4 2.10488 -2.05449 3.54553e-17
4 2.11318 -2.03091 3.24006e-17
4 2.12148 -2.00733 2.9346e-17
4 2.12977 -1.98374 2.62913e-17
4 2.13807 -1.96016 2.32366e-17
4 2.14637 -1.93658 2.01819e-17
4 2.15466 -1.91299 1.71272e-17
4 2.13938 -1.88111 8.66999e-18
4 2.11579 -1.87282 3.26745e-18
4 2.09221 -1.86452 -2.1351e-18
4 2.06863 -1.85622 -7.53765e-18
4 2.04504 -1.84793 -1.29402e-17
4 2.02146 -1.83963 -1.83427e-17
4 1.99788 -1.83134 -2.37453e-17
4 1.97429 -1.82304 -2.91478e-17
4 1.95071 -1.81474 -3.45504e-17
4 1.92713 -1.80645 -3.99529e-17
4 1.90355 -1.79815 -4.53555e-17
4 1.87167 -1.81344 -4.77033e-17
4 1.86337 -1.83702 -4.46486e-17
4 1.85507 -1.8606 -4.1594e-17
4 1.84678 -1.88419 -3.85393e-17
4 1.83848 -1.90777 -3.54846e-17
4 1.83018 -1.93135 -3.24299e-17
4 1.82189 -1.95493 -2.93752e-17
4 1.81359 -1.97852 -2.63205e-17
4 1.80529 -2.0021 -2.32659e-17
4 1.797 -2.02568 -2.02112e-17
4 1.7887 -2.04927 -1.71565e-17
4 -2.15203 -0.771497 -5.23264e-18
4 -2.12793 -0.778168 -5.22671e-18
4 -2.10384 -0.784839 -5.22079e-18
4 -2.07975 -0.79151 -5.21486e-18
4 -2.05565 -0.798181 -5.20893e-18
4 -2.03156 -0.804852 -5.203e-18
4 -2.00746 -0.811523 -5.19708e-18
4 -1.98337 -0.818194 -5.19115e-18
4 -1.95928 -0.824864 -5.18522e-18
4 -1.93518 -0.831535 -5.1793e-18
4 -1.91109 -0.838206 -5.17337e-18
4 -1.88033 -0.820784 -4.3001e-18
4 -1.87365 -0.79669 -3.43276e-18
4 -1.86698 -0.772597 -2.56542e-18
4 -1.86031 -0.748503 -1.69808e-18
4 -1.85364 -0.72441 -8.30735e-19
4 -1.84697 -0.700316 3.66061e-20
4 -1.8403 -0.676223 9.03948e-19
4 -1.83363 -0.652129 1.77129e-18
4 -1.82696 -0.628035 2.63863e-18
4 -1.82029 -0.603942 3.50597e-18
4 -1.81362 -0.579848 4.37331e-18
4 -1.83104 -0.549084 5.23473e-18
4 -1.85513 -0.542413 5.2288e-18
4 -1.87923 -0.535742 5.22287e-18
4 -1.90332 -0.529071 5.21695e-18
4 -1.92741 -0.5224 5.21102e-18
4 -1.95151 -0.515729 5.20509e-18
4 -1.9756 -0.509058 5.19917e-18
4 -1.99969 -0.502387 5.19324e-18
4 -2.02379 -0.495716 5.18731e-18
4 -2.04788 -0.489045 5.18139e-18
4 -2.07197 -0.482374 5.17546e-18
4 -2.10274 -0.499797 4.30219e-18
4 -2.10941 -0.523891 3.43485e-18
4 -2.11608 -0.547984 2.56751e-18
4 -2.12275 -0.572078 1.70017e-18
4 -2.12942 -0.596171 8.32824e-19
4 -2.13609 -0.620265 -3.45172e-20
4 -2.14276 -0.644358 -9.01859e-19
4 -2.14944 -0.668452 -1.7692e-18
4 -2.15611 -0.692545 -2.63654e-18
4 -2.16278 -0.716639 -3.50388e-18
4 -2.16945 -0.740732 -4.37122e-18
4 -0.749986 -0.837608 1.57634e-18
4 -0.725681 -0.831757 -6.05723e-18
4 -0.701375 -0.825905 -1.36908e-17
4 -0.67707 -0.820054 -2.13244e-17
4 -0.652764 -0.814202 -2.8958e-17
4 -0.628459 -0.808351 -3.65915e-17
4 -0.604153 -0.802499 -4.42251e-17
4 -0.579848 -0.796648 -5.18587e-17
4 -0.555542 -0.790796 -5.94923e-17
4 -0.531237 -0.784945 -6.71259e-17
4 -0.506931 -0.779093 -7.47594e-17
4 -0.488477 -0.748936 -7.62953e-17
4 -0.494328 -0.724631 -7.01975e-17
4 -0.50018 -0.700325 -6.40998e-17
4 -0.506031 -0.67602 -5.80021e-17
4 -0.511883 -0.651714 -5.19043e-17
4 -0.517735 -0.627409 -4.58066e-17
4 -0.523586 -0.603103 -3.97089e-17
4 -0.529438 -0.578797 -3.36111e-17
4 -0.535289 -0.554492 -2.75134e-17
4 -0.541141 -0.530186 -2.14157e-17
4 -0.546992 -0.505881 -1.53179e-17
4 -0.577149 -0.487427 -1.58661e-18
4 -0.601455 -0.493278 6.04697e-18
4 -0.62576 -0.49913 1.36805e-17
4 -0.650066 -0.504981 2.13141e-17
4 -0.674371 -0.510833 2.89477e-17
4 -0.698677 -0.516684 3.65813e-17
4 -0.722982 -0.522536 4.42149e-17
4 -0.747288 -0.528387 5.18484e-17
4 -0.771594 -0.534239 5.9482e-17
4 -0.795899 -0.54009 6.71156e-17
4 -0.820205 -0.545942 7.47492e-17
4 -0.838659 -0.576099 7.6285e-17
4 -0.832807 -0.600404 7.01873e-17
4 -0.826956 -0.62471 6.40895e-17
4 -0.821104 -0.649016 5.79918e-17
4 -0.815253 -0.673321 5.18941e-17
4 -0.809401 -0.697627 4.57963e-17
4 -0.80355 -0.721932 3.96986e-17
4 -0.797698 -0.746238 3.36009e-17
4 -0.791847 -0.770543 2.75031e-17
4 -0.785995 -0.794849 2.14054e-17
4 -0.780144 -0.819154 1.53077e-17
4 0.509689 -0.781314 -3.29806e-17
4 0.534002 -0.787138 -2.93595e-17
4 0.558314 -0.792962 -2.57385e-17
4 0.582626 -0.798786 -2.21175e-17
4 0.606938 -0.80461 -1.84965e-17
4 0.63125 -0.810434 -1.48754e-17
4 0.655563 -0.816258 -1.12544e-17
4 0.679875 -0.822082 -7.63338e-18
4 0.704187 -0.827906 -4.01235e-18
4 0.728499 -0.83373 -3.91322e-19
4 0.752811 -0.839554 3.22971e-18
4 0.782947 -0.821066 9.33014e-18
4 0.788771 -0.796754 1.18095e-17
4 0.794595 -0.772441 1.4289e-17
4 0.800419 -0.748129 1.67684e-17
4 0.806243 -0.723817 1.92478e-17
4 0.812067 -0.699505 2.17272e-17
4 0.817891 -0.675193 2.42066e-17
4 0.823715 -0.650881 2.6686e-17
4 0.829539 -0.626568 2.91654e-17
4 0.835363 -0.602256 3.16448e-17
4 0.841187 -0.577944 3.41242e-17
4 0.822699 -0.547808 3.29826e-17
4 0.798386 -0.541984 2.93616e-17
4 0.774074 -0.53616 2.57405e-17
4 0.749762 -0.530336 2.21195e-17
4 0.72545 -0.524512 1.84985e-17
4 0.701138 -0.518688 1.48775e-17
4 0.676826 -0.512864 1.12564e-17
4 0.652513 -0.50704 7.6354e-18
4 0.628201 -0.501216 4.01437e-18
4 0.603889 -0.495392 3.93342e-19
4 0.579577 -0.489568 -3.22769e-18
4 0.549441 -0.508057 -9.32812e-18
4 0.543617 -0.532369 -1.18075e-17
4 0.537793 -0.556681 -1.42869e-17
4 0.531969 -0.580993 -1.67663e-17
4 0.526145 -0.605305 -1.92457e-17
4 0.520321 -0.629617 -2.17252e-17
4 0.514497 -0.65393 -2.42046e-17
4 0.508673 -0.678242 -2.6684e-17
4 0.502849 -0.702554 -2.91634e-17
4 0.497025 -0.726866 -3.16428e-17
4 0.491201 -0.751178 -3.41222e-17
4 1.91377 -0.836693 -5.27506e-17
4 1.93788 -0.830095 -4.3546e-17
4 1.962 -0.823497 -3.43414e-17
4 1.98611 -0.816899 -2.51368e-17
4 2.01022 -0.810301 -1.59322e-17
4 2.03434 -0.803703 -6.72761e-18
4 2.05845 -0.797105 2.477e-18
4 2.08256 -0.790506 1.16816e-17
4 2.10668 -0.783908 2.08862e-17
4 2.13079 -0.77731 3.00908e-17
4 2.15491 -0.770712 3.92954e-17
4 2.17242 -0.74 4.9618e-17
4 2.16582 -0.715887 5.0736e-17
4 2.15922 -0.691773 5.1854e-17
4 2.15263 -0.66766 5.2972e-17
4 2.14603 -0.643546 5.409e-17
4 2.13943 -0.619433 5.5208e-17
4 2.13283 -0.595319 5.6326e-17
4 2.12623 -0.571205 5.7444e-17
4 2.11964 -0.547092 5.8562e-17
4 2.11304 -0.522978 5.96799e-17
4 2.10644 -0.498865 6.07979e-17
4 2.07573 -0.481349 5.27113e-17
4 2.05161 -0.487947 4.35067e-17
4 2.0275 -0.494545 3.43021e-17
4 2.00339 -0.501143 2.50975e-17
4 1.97927 -0.507742 1.58929e-17
4 1.95516 -0.51434 6.68828e-18
4 1.93105 -0.520938 -2.51633e-18
4 1.90693 -0.527536 -1.17209e-17
4 1.88282 -0.534134 -2.09255e-17
4 1.85871 -0.540732 -3.01302e-17
4 1.83459 -0.54733 -3.93348e-17
4 1.81708 -0.578042 -4.96574e-17
4 1.82367 -0.602156 -5.07754e-17
4 1.83027 -0.626269 -5.18933e-17
4 1.83687 -0.650383 -5.30113e-17
4 1.84347 -0.674496 -5.41293e-17
4 1.85007 -0.69861 -5.52473e-17
4 1.85667 -0.722723 -5.63653e-17
4 1.86326 -0.746837 -5.74833e-17
4 1.86986 -0.770951 -5.86013e-17
4 1.87646 -0.795064 -5.97193e-17
4 1.88306 -0.819178 -6.08373e-17
4 -2.07402 0.482601 6.40755e-17
4 -2.04994 0.489319 5.64284e-17
4 -2.02586 0.496036 4.87814e-17
4 -2.00178 0.502754 4.11343e-17
4 -1.9777 0.509472 3.34872e-17
4 -1.95362 0.516189 2.58401e-17
4 -1.92954 0.522907 1.81931e-17
4 -1.90546 0.529625 1.0546e-17
4 -1.88138 0.536342 2.89893e-18
4 -1.8573 0.54306 -4.74814e-18
4 -1.83321 0.549778 -1.23952e-17
4 -1.81585 0.580576 -2.43504e-17
4 -1.82257 0.604656 -2.86584e-17
4 -1.82929 0.628737 -3.29665e-17
4 -1.83601 0.652817 -3.72746e-17
4 -1.84272 0.676898 -4.15826e-17
4 -1.84944 0.700979 -4.58907e-17
4 -1.85616 0.725059 -5.01988e-17
4 -1.86288 0.74914 -5.45069e-17
4 -1.86959 0.77322 -5.88149e-17
4 -1.87631 0.797301 -6.3123e-17
4 -1.88303 0.821381 -6.74311e-17
4 -1.91383 0.838744 -6.40921e-17
4 -1.93791 0.832027 -5.6445e-17
4 -1.96199 0.825309 -4.87979e-17
4 -1.98607 0.818591 -4.11509e-17
4 -2.01015 0.811874 -3.35038e-17
4 -2.03423 0.805156 -2.58567e-17
4 -2.05831 0.798438 -1.82096e-17
4 -2.08239 0.791721 -1.05626e-17
4 -2.10647 0.785003 -2.9155e-18
4 -2.13055 0.778285 4.73157e-18
4 -2.15463 0.771568 1.23786e-17
4 -2.172 0.74077 2.43338e-17
4 -2.16528 0.716689 2.86419e-17
4 -2.15856 0.692608 3.29499e-17
4 -2.15184 0.668528 3.7258e-17
4 -2.14512 0.644447 4.15661e-17
4 -2.13841 0.620367 4.58741e-17
4 -2.13169 0.596286 5.01822e-17
4 -2.12497 0.572206 5.44903e-17
4 -2.11825 0.548125 5.87984e-17
4 -2.11154 0.524045 6.31064e-17
4 -2.10482 0.499964 6.74145e-17
4 -0.822495 0.550542 1.2468e-17
4 -0.798189 0.54469 8.69098e-18
4 -0.773884 0.538837 4.91395e-18
4 -0.749579 0.532985 1.13692e-18
4 -0.725273 0.527132 -2.64011e-18
4 -0.700968 0.52128 -6.41714e-18
4 -0.676663 0.515428 -1.01942e-17
4 -0.652357 0.509575 -1.39712e-17
4 -0.628052 0.503723 -1.77482e-17
4 -0.603747 0.49787 -2.15253e-17
4 -0.579441 0.492018 -2.53023e-17
4 -0.549284 0.51047 -2.80109e-17
4 -0.543431 0.534776 -2.69425e-17
4 -0.537579 0.559081 -2.58741e-17
4 -0.531726 0.583386 -2.48057e-17
4 -0.525874 0.607692 -2.37373e-17
4 -0.520021 0.631997 -2.26689e-17
4 -0.514169 0.656302 -2.16005e-17
4 -0.508316 0.680608 -2.05321e-17
4 -0.502464 0.704913 -1.94637e-17
4 -0.496611 0.729218 -1.83953e-17
4 -0.490759 0.753524 -1.7327e-17
4 -0.509212 0.783681 -1.24815e-17
4 -0.533517 0.789534 -8.70449e-18
4 -0.557822 0.795386 -4.92746e-18
4 -0.582128 0.801239 -1.15043e-18
4 -0.606433 0.807091 2.6266e-18
4 -0.630738 0.812944 6.40363e-18
4 -0.655044 0.818796 1.01807e-17
4 -0.679349 0.824649 1.39577e-17
4 -0.703654 0.830501 1.77347e-17
4 -0.72796 0.836354 2.15118e-17
4 -0.752265 0.842206 2.52888e-17
4 -0.782423 0.823753 2.79974e-17
4 -0.788275 0.799448 2.6929e-17
4 -0.794128 0.775143 2.58606e-17
4 -0.79998 0.750837 2.47922e-17
4 -0.805833 0.726532 2.37238e-17
4 -0.811685 0.702227 2.26554e-17
4 -0.817538 0.677921 2.1587e-17
4 -0.82339 0.653616 2.05186e-17
4 -0.829242 0.629311 1.94502e-17
4 -0.835095 0.605005 1.83818e-17
4 -0.840947 0.5807 1.73134e-17
4 0.577612 0.490372 -9.20457e-19
4 0.601918 0.49622 -1.90723e-18
4 0.626224 0.502067 -2.894e-18
4 0.650531 0.507915 -3.88077e-18
4 0.674837 0.513763 -4.86754e-18
4 0.699144 0.519611 -5.85431e-18
4 0.72345 0.525459 -6.84108e-18
4 0.747757 0.531306 -7.82785e-18
4 0.772063 0.537154 -8.81462e-18
4 0.79637 0.543002 -9.80139e-18
4 0.820676 0.54885 -1.07882e-17
4 0.839135 0.579004 -1.07991e-17
4 0.833287 0.603311 -9.8233e-18
4 0.827439 0.627617 -8.84749e-18
4 0.821591 0.651923 -7.87167e-18
4 0.815743 0.67623 -6.89586e-18
4 0.809896 0.700536 -5.92004e-18
4 0.804048 0.724843 -4.94423e-18
4 0.7982 0.749149 -3.96841e-18
4 0.792352 0.773456 -2.9926e-18
4 0.786504 0.797762 -2.01678e-18
4 0.780657 0.822069 -1.04097e-18
4 0.750502 0.840527 9.21618e-19
4 0.726196 0.834679 1.90839e-18
4 0.701889 0.828832 2.89516e-18
4 0.677583 0.822984 3.88193e-18
4 0.653277 0.817136 4.8687e-18
4 0.62897 0.811288 5.85547e-18
4 0.604664 0.80544 6.84224e-18
4 0.580357 0.799593 7.82901e-18
4 0.556051 0.793745 8.81578e-18
4 0.531744 0.787897 9.80255e-18
4 0.507438 0.782049 1.07893e-17
4 0.488979 0.751895 1.08003e-17
4 0.494827 0.727589 9.82446e-18
4 0.500675 0.703282 8.84865e-18
4 0.506523 0.678976 7.87283e-18
4 0.51237 0.654669 6.89702e-18
4 0.518218 0.630363 5.9212e-18
4 0.524066 0.606056 4.94539e-18
4 0.529914 0.58175 3.96957e-18
4 0.535762 0.557443 2.99376e-18
4 0.541609 0.533137 2.01794e-18
4 0.547457 0.508831 1.04213e-18
4 1.83236 0.550882 1.34443e-19
4 1.85648 0.544311 6.60448e-19
4 1.8806 0.537741 1.18645e-18
4 1.90472 0.53117 1.71246e-18
4 1.92884 0.524599 2.23846e-18
4 1.95296 0.518029 2.76447e-18
4 1.97709 0.511458 3.29048e-18
4 2.00121 0.504888 3.81648e-18
4 2.02533 0.498317 4.34249e-18
4 2.04945 0.491747 4.86849e-18
4 2.07357 0.485176 5.3945e-18
4 2.10426 0.502727 5.45972e-18
4 2.11083 0.526848 4.99893e-18
4 2.1174 0.550969 4.53814e-18
4 2.12397 0.57509 4.07736e-18
4 2.13054 0.599211 3.61657e-18
4 2.13711 0.623332 3.15579e-18
4 2.14368 0.647454 2.695e-18
4 2.15026 0.671575 2.23421e-18
4 2.15683 0.695696 1.77343e-18
4 2.1634 0.719817 1.31264e-18
4 2.16997 0.743938 8.51854e-19
4 2.15242 0.77463 -1.34937e-19
4 2.1283 0.7812 -6.60943e-19
4 2.10417 0.787771 -1.18695e-18
4 2.08005 0.794341 -1.71295e-18
4 2.05593 0.800912 -2.23896e-18
4 2.03181 0.807482 -2.76496e-18
4 2.00769 0.814053 -3.29097e-18
4 1.98357 0.820623 -3.81698e-18
4 1.95945 0.827194 -4.34298e-18
4 1.93533 0.833764 -4.86899e-18
4 1.91121 0.840335 -5.39499e-18
4 1.88051 0.822784 -5.46021e-18
4 1.87394 0.798663 -4.99942e-18
4 1.86737 0.774542 -4.53864e-18
4 1.8608 0.750421 -4.07785e-18
4 1.85423 0.7263 -3.61707e-18
4 1.84766 0.702179 -3.15628e-18
4 1.84109 0.678058 -2.69549e-18
4 1.83452 0.653937 -2.23471e-18
4 1.82795 0.629815 -1.77392e-18
4 1.82138 0.605694 -1.31314e-18
4 1.81481 0.581573 -8.52349e-19
4 -2.139 1.88245 5.65173e-18
4 -2.11544 1.87409 5.08065e-18
4 -2.09187 1.86573 4.50956e-18
4 -2.06831 1.85737 3.93848e-18
4 -2.04475 1.84901 3.3674e-18
4 -2.02119 1.84065 2.79631e-18
4 -1.99763 1.83229 2.22523e-18
4 -1.97407 1.82393 1.65415e-18
4 -1.95051 1.81557 1.08306e-18
4 -1.92695 1.80721 5.1198e-19
4 -1.90339 1.79885 -5.91039e-20
4 -1.87147 1.81405 -1.09646e-18
4 -1.86311 1.83761 -1.56274e-18
4 -1.85475 1.86117 -2.02901e-18
4 -1.84639 1.88473 -2.49529e-18
4 -1.83803 1.90829 -2.96156e-18
4 -1.82967 1.93185 -3.42784e-18
4 -1.82131 1.95541 -3.89411e-18
4 -1.81295 1.97897 -4.36039e-18
4 -1.80459 2.00253 -4.82666e-18
4 -1.79623 2.0261 -5.29294e-18
4 -1.78787 2.04966 -5.75921e-18
4 -1.80307 2.08158 -5.6544e-18
4 -1.82663 2.08994 -5.08332e-18
4 -1.85019 2.0983 -4.51224e-18
4 -1.87375 2.10666 -3.94115e-18
4 -1.89731 2.11502 -3.37007e-18
4 -1.92087 2.12338 -2.79899e-18
4 -1.94443 2.13174 -2.2279e-18
4 -1.96799 2.1401 -1.65682e-18
4 -1.99155 2.14846 -1.08574e-18
4 -2.01511 2.15682 -5.14653e-19
4 -2.03867 2.16518 5.64306e-20
4 -2.07059 2.14998 1.09379e-18
4 -2.07895 2.12642 1.56006e-18
4 -2.08732 2.10286 2.02634e-18
4 -2.09568 2.0793 2.49261e-18
4 -2.10404 2.05574 2.95889e-18
4 -2.1124 2.03217 3.42516e-18
4 -2.12076 2.00861 3.89144e-18
4 -2.12912 1.98505 4.35771e-18
4 -2.13748 1.96149 4.82399e-18
4 -2.14584 1.93793 5.29026e-18
4 -2.1542 1.91437 5.75654e-18
4 -0.738721 1.8119 3.55011e-18
4 -0.714766 1.81905 1.00918e-19
4 -0.690811 1.8262 -3.34828e-18
4 -0.666856 1.83336 -6.79747e-18
4 -0.642902 1.84051 -1.02467e-17
4 -0.618947 1.84766 -1.36959e-17
4 -0.594992 1.85482 -1.71451e-17
4 -0.571037 1.86197 -2.05942e-17
4 -0.547083 1.86912 -2.40434e-17
4 -0.523128 1.87628 -2.74926e-17
4 -0.499173 1.88343 -3.09418e-17
4 -0.482372 1.91454 -3.211e-17
4 -0.489525 1.93849 -2.98289e-17
4 -0.496678 1.96245 -2.75479e-17
4 -0.503832 1.9864 -2.52668e-17
4 -0.510985 2.01036 -2.29857e-17
4 -0.518138 2.03431 -2.07047e-17
4 -0.525292 2.05827 -1.84236e-17
4 -0.532445 2.08222 -1.61426e-17
4 -0.539598 2.10617 -1.38615e-17
4 -0.546752 2.13013 -1.15805e-17
4 -0.553905 2.15408 -9.29942e-18
4 -0.585013 2.17089 -3.56917e-18
4 -0.608968 2.16373 -1.19978e-19
4 -0.632922 2.15658 3.32922e-18
4 -0.656877 2.14943 6.77841e-18
4 -0.680832 2.14227 1.02276e-17
4 -0.704787 2.13512 1.36768e-17
4 -0.728741 2.12797 1.7126e-17
4 -0.752696 2.12081 2.05752e-17
4 -0.776651 2.11366 2.40244e-17
4 -0.800606 2.10651 2.74736e-17
4 -0.82456 2.09935 3.09228e-17
4 -0.841362 2.06824 3.20909e-17
4 -0.834209 2.04429 2.98099e-17
4 -0.827055 2.02033 2.75288e-17
4 -0.819902 1.99638 2.52477e-17
4 -0.812749 1.97243 2.29667e-17
4 -0.805595 1.94847 2.06856e-17
4 -0.798442 1.92452 1.84046e-17
4 -0.791289 1.90056 1.61235e-17
4 -0.784135 1.87661 1.38425e-17
4 -0.776982 1.85265 1.15614e-17
4 -0.769829 1.8287 9.28036e-18
4 0.499612 1.88162 -1.46079e-17
4 0.523562 1.87445 -1.07593e-17
4 0.547513 1.86728 -6.91076e-18
4 0.571463 1.86012 -3.06218e-18
4 0.595413 1.85295 7.86394e-19
4 0.619364 1.84578 4.63497e-18
4 0.643314 1.83861 8.48355e-18
4 0.667264 1.83144 1.23321e-17
4 0.691215 1.82428 1.61807e-17
4 0.715165 1.81711 2.00293e-17
4 0.739116 1.80994 2.38778e-17
4 0.770234 1.82672 2.69545e-17
4 0.777402 1.85067 2.61825e-17
4 0.78457 1.87462 2.54106e-17
4 0.791738 1.89857 2.46386e-17
4 0.798906 1.92253 2.38667e-17
4 0.806074 1.94648 2.30947e-17
4 0.813242 1.97043 2.23228e-17
4 0.82041 1.99438 2.15508e-17
4 0.827578 2.01833 2.07789e-17
4 0.834745 2.04228 2.00069e-17
4 0.841913 2.06623 1.9235e-17
4 0.825131 2.09735 1.46145e-17
4 0.801181 2.10451 1.07659e-17
4 0.77723 2.11168 6.91732e-18
4 0.75328 2.11885 3.06874e-18
4 0.72933 2.12602 -7.79832e-19
4 0.705379 2.13319 -4.62841e-18
4 0.681429 2.14035 -8.47698e-18
4 0.657478 2.14752 -1.23256e-17
4 0.633528 2.15469 -1.61741e-17
4 0.609578 2.16186 -2.00227e-17
4 0.585627 2.16903 -2.38713e-17
4 0.554509 2.15224 -2.69479e-17
4 0.547341 2.12829 -2.6176e-17
4 0.540173 2.10434 -2.5404e-17
4 0.533005 2.08039 -2.46321e-17
4 0.525837 2.05644 -2.38601e-17
4 0.518669 2.03249 -2.30882e-17
4 0.511501 2.00854 -2.23162e-17
4 0.504333 1.98459 -2.15443e-17
4 0.497165 1.96064 -2.07723e-17
4 0.489997 1.93669 -2.00004e-17
4 0.482829 1.91274 -1.92284e-17
4 1.90375 1.80197 2.96735e-18
4 1.92731 1.81031 8.74904e-18
4 1.95088 1.81866 1.45307e-17
4 1.97445 1.827 2.03124e-17
4 1.99801 1.83534 2.60941e-17
4 2.02158 1.84369 3.18758e-17
4 2.04515 1.85203 3.76575e-17
4 2.06871 1.86038 4.34392e-17
4 2.09228 1.86872 4.92209e-17
4 2.11585 1.87706 5.50025e-17
4 2.13941 1.88541 6.07842e-17
4 2.15463 1.91732 6.12554e-17
4 2.14629 1.94089 5.59448e-17
4 2.13795 1.96445 5.06343e-17
4 2.1296 1.98802 4.53238e-17
4 2.12126 2.01158 4.00132e-17
4 2.11291 2.03515 3.47027e-17
4 2.10457 2.05872 2.93921e-17
4 2.09622 2.08228 2.40816e-17
4 2.08788 2.10585 1.87711e-17
4 2.07954 2.12942 1.34605e-17
4 2.07119 2.15298 8.14999e-18
4 2.03928 2.16821 -2.94224e-18
4 2.01572 2.15986 -8.72393e-18
4 1.99215 2.15152 -1.45056e-17
4 1.96858 2.14317 -2.02873e-17
4 1.94502 2.13483 -2.6069e-17
4 1.92145 2.12648 -3.18507e-17
4 1.89788 2.11814 -3.76324e-17
4 1.87432 2.1098 -4.34141e-17
4 1.85075 2.10145 -4.91958e-17
4 1.82718 2.09311 -5.49774e-17
4 1.80362 2.08476 -6.07591e-17
4 1.7884 2.05285 -6.12303e-17
4 1.79674 2.02929 -5.59197e-17
4 1.80508 2.00572 -5.06092e-17
4 1.81343 1.98215 -4.52987e-17
4 1.82177 1.95859 -3.99881e-17
4 1.83012 1.93502 -3.46776e-17
4 1.83846 1.91145 -2.9367e-17
4 1.8468 1.88789 -2.40565e-17
4 1.85515 1.86432 -1.8746e-17
4 1.86349 1.84076 -1.34354e-17
4 1.87184 1.81719 -8.12488e-18
1 -2.25202 -1.86843 0
1 -2.24375 -1.89202 0
1 -2.23548 -1.91561 0
1 -2.2272 -1.93922 0
1 -2.21891 -1.96282 0
1 -2.21061 -1.98642 0
1 -2.20231 -2.01001 0
1 -2.194 -2.0336 0
1 -2.18569 -2.05719 0
1 -2.17738 -2.08077 0
1 -2.16907 -2.10435 0
1 -2.16077 -2.12794 0
1 -2.15246 -2.15152 0
1 -2.14415 -2.1751 0
1 -2.13585 -2.19868 0
1 -2.12754 -2.22226 0
1 -2.11924 -2.24584 0
1 -2.14269 -1.80286 0
1 -2.16614 -1.81152 0
1 -2.18963 -1.81996 0
1 -2.21317 -1.82828 0
1 -2.23673 -1.83657 0
1 -2.08735 -2.26111 0
1 -2.06377 -2.25281 0
1 -2.04019 -2.2445 0
1 -2.01661 -2.2362 0
1 -1.99303 -2.22789 0
1 -1.96945 -2.21958 0
1 -1.94587 -2.21128 0
1 -1.9223 -2.20297 0
1 -1.89872 -2.19467 0
1 -1.87515 -2.18636 0
1 -1.85158 -2.17806 0
1 -1.82801 -2.16976 0
1 -1.80444 -2.16147 0
1 -1.78088 -2.1532 0
1 -1.75731 -2.14495 0
1 -1.73372 -2.1367 0
1 -1.71013 -2.12843 0
1 -2.13045 -0.883254 0
1 -2.13654 -0.908554 0
1 -2.14246 -0.934011 0
1 -2.14805 -0.959555 0
1 -2.15329 -0.985173 0
1 -2.15818 -1.01087 0
1 -2.16272 -1.03663 0
1 -2.1669 -1.06247 0
1 -2.17072 -1.08837 0
1 -2.17419 -1.11433 0
1 -2.17728 -1.14036 0
1 -2.17999 -1.16644 0
1 -2.18233 -1.19256 0
1 -2.18429 -1.21874 0
1 -2.18585 -1.24495 0
1 -2.18702 -1.2712 0
1 -2.18779 -1.29747 0
1 -2.18815 -1.32377 0
1 -2.18811 -1.35009 0
1 -2.18764 -1.37642 0
1 -2.18675 -1.40275 0
1 -2.18544 -1.42909 0
1 -2.18369 -1.45541 0
1 -2.1815 -1.48173 0
1 -2.17887 -1.50801 0
1 -2.17579 -1.53427 0
1 -2.17224 -1.56049 0
1 -2.16824 -1.58666 0
1 -2.16377 -1.61278 0
1 -2.15882 -1.63883 0
1 -2.15339 -1.6648 0
1 -2.14748 -1.6907 0
1 -2.14107 -1.71651 0
1 -2.13415 -1.74223 0
1 -2.12673 -1.76785 0
1 -1.69482 -2.09654 0
1 -1.70311 -2.07295 0
1 -1.71145 -2.04935 0
1 -1.71989 -2.02577 0
1 -1.72856 -2.0023 0
1 -2.24421 -0.823852 0
1 -2.22012 -0.830509 0
1 -2.19605 -0.837191 0
1 -2.172 -0.843937 0
1 -2.14798 -0.850817 0
1 -1.71562 -1.97217 0
1 -1.69321 -1.96583 0
1 -1.67084 -1.95977 0
1 -1.64834 -1.95417 0
1 -1.62569 -1.94906 0
1 -1.6029 -1.94442 0
1 -1.57998 -1.94025 0
1 -1.55696 -1.93655 0
1 -1.53385 -1.9333 0
1 -1.51064 -1.93052 0
1 -1.48736 -1.92818 0
1 -1.46402 -1.92628 0
1 -1.44061 -1.92483 0
1 -1.41715 -1.92381 0
1 -1.39364 -1.92321 0
1 -1.37011 -1.92303 0
1 -1.34654 -1.92327 0
1 -1.32295 -1.92391 0